3.680799960999999954e+00 0.000000000000000000e+00 0.000000000000000000e+00 0.000000000000000000e+00 3.680799960999999954e+00 0.000000000000000000e+00 0.000000000000000000e+00 0.000000000000000000e+00 3.680799960999999954e+00
3.680799960999999954e+00 0.000000000000000000e+00 0.000000000000000000e+00 0.000000000000000000e+00 3.680799960999999954e+00 0.000000000000000000e+00 0.000000000000000000e+00 0.000000000000000000e+00 3.680799960999999954e+00
3.680799960999999954e+00 0.000000000000000000e+00 0.000000000000000000e+00 0.000000000000000000e+00 3.680799960999999954e+00 0.000000000000000000e+00 0.000000000000000000e+00 0.000000000000000000e+00 3.680799960999999954e+00
3.680799960999999954e+00 0.000000000000000000e+00 0.000000000000000000e+00 0.000000000000000000e+00 3.680799960999999954e+00 0.000000000000000000e+00 0.000000000000000000e+00 0.000000000000000000e+00 3.680799960999999954e+00
3.680799960999999954e+00 0.000000000000000000e+00 0.000000000000000000e+00 0.000000000000000000e+00 3.680799960999999954e+00 0.000000000000000000e+00 0.000000000000000000e+00 0.000000000000000000e+00 3.680799960999999954e+00
