5.407000000000000001e-02 2.674650000000000194e+00 1.531250000000000000e+00 1.894470000000000098e+00 8.342500000000000471e-01 1.531400000000000095e+00 5.403000000000000164e-02 8.341800000000000326e-01 3.371760000000000090e+00 1.894470000000000098e+00 2.674690000000000012e+00 3.371719999999999828e+00
5.519000000000000294e-02 2.673890000000000100e+00 1.532019999999999937e+00 1.896470000000000100e+00 8.342800000000000216e-01 1.530419999999999892e+00 5.548000000000000154e-02 8.340199999999999836e-01 3.374140000000000139e+00 1.889990000000000059e+00 2.675520000000000120e+00 3.369600000000000151e+00
5.630000000000000282e-02 2.673140000000000072e+00 1.532799999999999940e+00 1.898470000000000102e+00 8.343099999999999961e-01 1.529449999999999976e+00 5.691999999999999837e-02 8.338600000000000456e-01 3.376510000000000122e+00 1.885520000000000085e+00 2.676359999999999850e+00 3.367480000000000029e+00
5.739999999999999963e-02 2.672379999999999978e+00 1.533570000000000100e+00 1.900460000000000038e+00 8.343399999999999705e-01 1.528469999999999995e+00 5.834999999999999909e-02 8.336999999999999966e-01 3.378880000000000106e+00 1.881059999999999954e+00 2.677189999999999959e+00 3.365369999999999973e+00
5.850000000000000339e-02 2.671629999999999949e+00 1.534340000000000037e+00 1.902460000000000040e+00 8.343699999999999450e-01 1.527500000000000080e+00 5.976999999999999674e-02 8.335500000000000131e-01 3.381240000000000023e+00 1.876630000000000020e+00 2.678020000000000067e+00 3.363259999999999916e+00
