-3.388746775999999983e+01
-3.388730848000000151e+01
-3.388683084000000179e+01
-3.388603948000000088e+01
-3.388493978000000340e+01
