-8.099999999999999561e-04 1.363000000000000062e-03 -7.649999999999999465e-04 -4.699999999999999859e-04 3.759999999999999779e-04 -7.489999999999999913e-04 -9.699999999999999963e-05 8.620000000000000275e-04 -7.010000000000000172e-04 -4.640000000000000027e-04 -3.060000000000000111e-04 -4.479999999999999933e-04
-1.846599999999999978e-02 4.837000000000000154e-03 -4.015999999999999605e-03 -2.616999999999999969e-03 6.769999999999999759e-04 5.673000000000000091e-03 -2.000400000000000095e-02 2.366000000000000048e-03 -1.685499999999999846e-02 3.897099999999999870e-02 -5.355000000000000385e-03 1.211399999999999977e-02
-3.588600000000000123e-02 8.011000000000000759e-03 -6.967000000000000103e-03 -5.361999999999999579e-03 9.940000000000000918e-04 1.241500000000000069e-02 -4.019400000000000056e-02 3.936000000000000262e-03 -3.362899999999999917e-02 7.937199999999999811e-02 -1.062399999999999976e-02 2.517700000000000146e-02
-5.317000000000000198e-02 1.118399999999999950e-02 -9.910000000000000406e-03 -8.059000000000000191e-03 1.296999999999999976e-03 1.911399999999999905e-02 -6.024899999999999700e-02 5.492000000000000354e-03 -5.030300000000000049e-02 1.194979999999999931e-01 -1.586200000000000110e-02 3.812999999999999723e-02
-7.027899999999999425e-02 1.435999999999999950e-02 -1.284199999999999925e-02 -1.083800000000000041e-02 1.585999999999999953e-03 2.580400000000000055e-02 -8.007000000000000228e-02 7.024999999999999994e-03 -6.682399999999999451e-02 1.592339999999999867e-01 -2.106500000000000039e-02 5.101300000000000279e-02
