2.408912442000000098e+00 0.000000000000000000e+00 0.000000000000000000e+00 -1.204456221000000049e+00 2.086179369999999977e+00 0.000000000000000000e+00 0.000000000000000000e+00 0.000000000000000000e+00 4.317613591999999834e+00
2.408912442000000098e+00 0.000000000000000000e+00 0.000000000000000000e+00 -1.204456221000000049e+00 2.086179369999999977e+00 0.000000000000000000e+00 0.000000000000000000e+00 0.000000000000000000e+00 4.317613591999999834e+00
2.408912442000000098e+00 0.000000000000000000e+00 0.000000000000000000e+00 -1.204456221000000049e+00 2.086179369999999977e+00 0.000000000000000000e+00 0.000000000000000000e+00 0.000000000000000000e+00 4.317613591999999834e+00
2.408912442000000098e+00 0.000000000000000000e+00 0.000000000000000000e+00 -1.204456221000000049e+00 2.086179369999999977e+00 0.000000000000000000e+00 0.000000000000000000e+00 0.000000000000000000e+00 4.317613591999999834e+00
2.408912442000000098e+00 0.000000000000000000e+00 0.000000000000000000e+00 -1.204456221000000049e+00 2.086179369999999977e+00 0.000000000000000000e+00 0.000000000000000000e+00 0.000000000000000000e+00 4.317613591999999834e+00
2.443224744000000115e+00 0.000000000000000000e+00 0.000000000000000000e+00 -1.258911252999999952e+00 2.058890236999999956e+00 0.000000000000000000e+00 2.677728899999999926e-02 -1.093053519999999945e-01 4.420464143000000234e+00
2.443224744000000115e+00 0.000000000000000000e+00 0.000000000000000000e+00 -1.258911252999999952e+00 2.058890236999999956e+00 0.000000000000000000e+00 2.677728899999999926e-02 -1.093053519999999945e-01 4.420464143000000234e+00
2.443224744000000115e+00 0.000000000000000000e+00 0.000000000000000000e+00 -1.258911252999999952e+00 2.058890236999999956e+00 0.000000000000000000e+00 2.677728899999999926e-02 -1.093053519999999945e-01 4.420464143000000234e+00
2.443224744000000115e+00 0.000000000000000000e+00 0.000000000000000000e+00 -1.258911252999999952e+00 2.058890236999999956e+00 0.000000000000000000e+00 2.677728899999999926e-02 -1.093053519999999945e-01 4.420464143000000234e+00
2.443224744000000115e+00 0.000000000000000000e+00 0.000000000000000000e+00 -1.258911252999999952e+00 2.058890236999999956e+00 0.000000000000000000e+00 2.677728899999999926e-02 -1.093053519999999945e-01 4.420464143000000234e+00
2.394185675000000124e+00 0.000000000000000000e+00 0.000000000000000000e+00 -1.199841879999999916e+00 2.097825309000000082e+00 0.000000000000000000e+00 4.224559800000000226e-02 7.497769599999999646e-02 4.363198129999999786e+00
2.394185675000000124e+00 0.000000000000000000e+00 0.000000000000000000e+00 -1.199841879999999916e+00 2.097825309000000082e+00 0.000000000000000000e+00 4.224559800000000226e-02 7.497769599999999646e-02 4.363198129999999786e+00
2.394185675000000124e+00 0.000000000000000000e+00 0.000000000000000000e+00 -1.199841879999999916e+00 2.097825309000000082e+00 0.000000000000000000e+00 4.224559800000000226e-02 7.497769599999999646e-02 4.363198129999999786e+00
2.394185675000000124e+00 0.000000000000000000e+00 0.000000000000000000e+00 -1.199841879999999916e+00 2.097825309000000082e+00 0.000000000000000000e+00 4.224559800000000226e-02 7.497769599999999646e-02 4.363198129999999786e+00
2.394185675000000124e+00 0.000000000000000000e+00 0.000000000000000000e+00 -1.199841879999999916e+00 2.097825309000000082e+00 0.000000000000000000e+00 4.224559800000000226e-02 7.497769599999999646e-02 4.363198129999999786e+00
2.401684031999999913e+00 0.000000000000000000e+00 0.000000000000000000e+00 -1.159994688000000052e+00 2.119884803999999789e+00 0.000000000000000000e+00 -7.992668299999999837e-02 -5.631235000000000060e-03 4.294640656000000334e+00
2.401684031999999913e+00 0.000000000000000000e+00 0.000000000000000000e+00 -1.159994688000000052e+00 2.119884803999999789e+00 0.000000000000000000e+00 -7.992668299999999837e-02 -5.631235000000000060e-03 4.294640656000000334e+00
2.401684031999999913e+00 0.000000000000000000e+00 0.000000000000000000e+00 -1.159994688000000052e+00 2.119884803999999789e+00 0.000000000000000000e+00 -7.992668299999999837e-02 -5.631235000000000060e-03 4.294640656000000334e+00
2.401684031999999913e+00 0.000000000000000000e+00 0.000000000000000000e+00 -1.159994688000000052e+00 2.119884803999999789e+00 0.000000000000000000e+00 -7.992668299999999837e-02 -5.631235000000000060e-03 4.294640656000000334e+00
2.401684031999999913e+00 0.000000000000000000e+00 0.000000000000000000e+00 -1.159994688000000052e+00 2.119884803999999789e+00 0.000000000000000000e+00 -7.992668299999999837e-02 -5.631235000000000060e-03 4.294640656000000334e+00
2.474279065999999805e+00 0.000000000000000000e+00 0.000000000000000000e+00 -1.186313350999999905e+00 2.082014617000000012e+00 0.000000000000000000e+00 4.228396999999999711e-02 -2.189543500000000129e-02 4.330106681000000179e+00
2.474279065999999805e+00 0.000000000000000000e+00 0.000000000000000000e+00 -1.186313350999999905e+00 2.082014617000000012e+00 0.000000000000000000e+00 4.228396999999999711e-02 -2.189543500000000129e-02 4.330106681000000179e+00
2.474279065999999805e+00 0.000000000000000000e+00 0.000000000000000000e+00 -1.186313350999999905e+00 2.082014617000000012e+00 0.000000000000000000e+00 4.228396999999999711e-02 -2.189543500000000129e-02 4.330106681000000179e+00
2.474279065999999805e+00 0.000000000000000000e+00 0.000000000000000000e+00 -1.186313350999999905e+00 2.082014617000000012e+00 0.000000000000000000e+00 4.228396999999999711e-02 -2.189543500000000129e-02 4.330106681000000179e+00
2.474279065999999805e+00 0.000000000000000000e+00 0.000000000000000000e+00 -1.186313350999999905e+00 2.082014617000000012e+00 0.000000000000000000e+00 4.228396999999999711e-02 -2.189543500000000129e-02 4.330106681000000179e+00
2.408816444999999806e+00 0.000000000000000000e+00 0.000000000000000000e+00 -1.262002929999999967e+00 2.091573444999999865e+00 0.000000000000000000e+00 -5.349248200000000092e-02 1.125438879999999947e-01 4.390189702999999888e+00
2.408816444999999806e+00 0.000000000000000000e+00 0.000000000000000000e+00 -1.262002929999999967e+00 2.091573444999999865e+00 0.000000000000000000e+00 -5.349248200000000092e-02 1.125438879999999947e-01 4.390189702999999888e+00
2.408816444999999806e+00 0.000000000000000000e+00 0.000000000000000000e+00 -1.262002929999999967e+00 2.091573444999999865e+00 0.000000000000000000e+00 -5.349248200000000092e-02 1.125438879999999947e-01 4.390189702999999888e+00
2.408816444999999806e+00 0.000000000000000000e+00 0.000000000000000000e+00 -1.262002929999999967e+00 2.091573444999999865e+00 0.000000000000000000e+00 -5.349248200000000092e-02 1.125438879999999947e-01 4.390189702999999888e+00
2.408816444999999806e+00 0.000000000000000000e+00 0.000000000000000000e+00 -1.262002929999999967e+00 2.091573444999999865e+00 0.000000000000000000e+00 -5.349248200000000092e-02 1.125438879999999947e-01 4.390189702999999888e+00
2.343586633999999780e+00 0.000000000000000000e+00 0.000000000000000000e+00 -1.116669004000000021e+00 2.139650915999999903e+00 0.000000000000000000e+00 2.613199999999999985e-05 5.559706999999999670e-03 4.432593518000000010e+00
2.343586633999999780e+00 0.000000000000000000e+00 0.000000000000000000e+00 -1.116669004000000021e+00 2.139650915999999903e+00 0.000000000000000000e+00 2.613199999999999985e-05 5.559706999999999670e-03 4.432593518000000010e+00
2.343586633999999780e+00 0.000000000000000000e+00 0.000000000000000000e+00 -1.116669004000000021e+00 2.139650915999999903e+00 0.000000000000000000e+00 2.613199999999999985e-05 5.559706999999999670e-03 4.432593518000000010e+00
2.343586633999999780e+00 0.000000000000000000e+00 0.000000000000000000e+00 -1.116669004000000021e+00 2.139650915999999903e+00 0.000000000000000000e+00 2.613199999999999985e-05 5.559706999999999670e-03 4.432593518000000010e+00
2.343586633999999780e+00 0.000000000000000000e+00 0.000000000000000000e+00 -1.116669004000000021e+00 2.139650915999999903e+00 0.000000000000000000e+00 2.613199999999999985e-05 5.559706999999999670e-03 4.432593518000000010e+00
2.427035420000000165e+00 0.000000000000000000e+00 0.000000000000000000e+00 -1.234214133000000047e+00 2.035761008999999788e+00 0.000000000000000000e+00 8.133308499999999941e-02 7.181088099999999308e-02 4.423923828999999586e+00
2.427035420000000165e+00 0.000000000000000000e+00 0.000000000000000000e+00 -1.234214133000000047e+00 2.035761008999999788e+00 0.000000000000000000e+00 8.133308499999999941e-02 7.181088099999999308e-02 4.423923828999999586e+00
2.427035420000000165e+00 0.000000000000000000e+00 0.000000000000000000e+00 -1.234214133000000047e+00 2.035761008999999788e+00 0.000000000000000000e+00 8.133308499999999941e-02 7.181088099999999308e-02 4.423923828999999586e+00
2.427035420000000165e+00 0.000000000000000000e+00 0.000000000000000000e+00 -1.234214133000000047e+00 2.035761008999999788e+00 0.000000000000000000e+00 8.133308499999999941e-02 7.181088099999999308e-02 4.423923828999999586e+00
2.427035420000000165e+00 0.000000000000000000e+00 0.000000000000000000e+00 -1.234214133000000047e+00 2.035761008999999788e+00 0.000000000000000000e+00 8.133308499999999941e-02 7.181088099999999308e-02 4.423923828999999586e+00
2.372403959000000118e+00 0.000000000000000000e+00 0.000000000000000000e+00 -1.184541808999999946e+00 2.076834037999999882e+00 0.000000000000000000e+00 2.577635699999999974e-02 -1.188268779999999969e-01 4.424346089000000148e+00
2.372403959000000118e+00 0.000000000000000000e+00 0.000000000000000000e+00 -1.184541808999999946e+00 2.076834037999999882e+00 0.000000000000000000e+00 2.577635699999999974e-02 -1.188268779999999969e-01 4.424346089000000148e+00
2.372403959000000118e+00 0.000000000000000000e+00 0.000000000000000000e+00 -1.184541808999999946e+00 2.076834037999999882e+00 0.000000000000000000e+00 2.577635699999999974e-02 -1.188268779999999969e-01 4.424346089000000148e+00
2.372403959000000118e+00 0.000000000000000000e+00 0.000000000000000000e+00 -1.184541808999999946e+00 2.076834037999999882e+00 0.000000000000000000e+00 2.577635699999999974e-02 -1.188268779999999969e-01 4.424346089000000148e+00
2.372403959000000118e+00 0.000000000000000000e+00 0.000000000000000000e+00 -1.184541808999999946e+00 2.076834037999999882e+00 0.000000000000000000e+00 2.577635699999999974e-02 -1.188268779999999969e-01 4.424346089000000148e+00
2.441606154000000029e+00 0.000000000000000000e+00 0.000000000000000000e+00 -1.249814876000000075e+00 2.137509849999999823e+00 0.000000000000000000e+00 3.431637999999999876e-03 4.464551700000000262e-02 4.381531800000000310e+00
2.441606154000000029e+00 0.000000000000000000e+00 0.000000000000000000e+00 -1.249814876000000075e+00 2.137509849999999823e+00 0.000000000000000000e+00 3.431637999999999876e-03 4.464551700000000262e-02 4.381531800000000310e+00
2.441606154000000029e+00 0.000000000000000000e+00 0.000000000000000000e+00 -1.249814876000000075e+00 2.137509849999999823e+00 0.000000000000000000e+00 3.431637999999999876e-03 4.464551700000000262e-02 4.381531800000000310e+00
2.441606154000000029e+00 0.000000000000000000e+00 0.000000000000000000e+00 -1.249814876000000075e+00 2.137509849999999823e+00 0.000000000000000000e+00 3.431637999999999876e-03 4.464551700000000262e-02 4.381531800000000310e+00
2.441606154000000029e+00 0.000000000000000000e+00 0.000000000000000000e+00 -1.249814876000000075e+00 2.137509849999999823e+00 0.000000000000000000e+00 3.431637999999999876e-03 4.464551700000000262e-02 4.381531800000000310e+00
2.483414887999999987e+00 0.000000000000000000e+00 0.000000000000000000e+00 -1.241707443999999994e+00 2.150700382000000133e+00 0.000000000000000000e+00 0.000000000000000000e+00 0.000000000000000000e+00 4.451148032999999948e+00
2.483414887999999987e+00 0.000000000000000000e+00 0.000000000000000000e+00 -1.241707443999999994e+00 2.150700382000000133e+00 0.000000000000000000e+00 0.000000000000000000e+00 0.000000000000000000e+00 4.451148032999999948e+00
2.483414887999999987e+00 0.000000000000000000e+00 0.000000000000000000e+00 -1.241707443999999994e+00 2.150700382000000133e+00 0.000000000000000000e+00 0.000000000000000000e+00 0.000000000000000000e+00 4.451148032999999948e+00
2.483414887999999987e+00 0.000000000000000000e+00 0.000000000000000000e+00 -1.241707443999999994e+00 2.150700382000000133e+00 0.000000000000000000e+00 0.000000000000000000e+00 0.000000000000000000e+00 4.451148032999999948e+00
2.483414887999999987e+00 0.000000000000000000e+00 0.000000000000000000e+00 -1.241707443999999994e+00 2.150700382000000133e+00 0.000000000000000000e+00 0.000000000000000000e+00 0.000000000000000000e+00 4.451148032999999948e+00
2.417325459000000176e+00 0.000000000000000000e+00 0.000000000000000000e+00 -1.244502293000000037e+00 2.208251002999999990e+00 0.000000000000000000e+00 2.201219999999999913e-02 -1.269060609999999867e-01 4.494736540999999974e+00
2.417325459000000176e+00 0.000000000000000000e+00 0.000000000000000000e+00 -1.244502293000000037e+00 2.208251002999999990e+00 0.000000000000000000e+00 2.201219999999999913e-02 -1.269060609999999867e-01 4.494736540999999974e+00
2.417325459000000176e+00 0.000000000000000000e+00 0.000000000000000000e+00 -1.244502293000000037e+00 2.208251002999999990e+00 0.000000000000000000e+00 2.201219999999999913e-02 -1.269060609999999867e-01 4.494736540999999974e+00
2.417325459000000176e+00 0.000000000000000000e+00 0.000000000000000000e+00 -1.244502293000000037e+00 2.208251002999999990e+00 0.000000000000000000e+00 2.201219999999999913e-02 -1.269060609999999867e-01 4.494736540999999974e+00
2.417325459000000176e+00 0.000000000000000000e+00 0.000000000000000000e+00 -1.244502293000000037e+00 2.208251002999999990e+00 0.000000000000000000e+00 2.201219999999999913e-02 -1.269060609999999867e-01 4.494736540999999974e+00
2.545091192000000113e+00 0.000000000000000000e+00 0.000000000000000000e+00 -1.233940653999999970e+00 2.190472000999999835e+00 0.000000000000000000e+00 1.008618170000000064e-01 -3.519888200000000078e-02 4.524506098999999892e+00
2.545091192000000113e+00 0.000000000000000000e+00 0.000000000000000000e+00 -1.233940653999999970e+00 2.190472000999999835e+00 0.000000000000000000e+00 1.008618170000000064e-01 -3.519888200000000078e-02 4.524506098999999892e+00
2.545091192000000113e+00 0.000000000000000000e+00 0.000000000000000000e+00 -1.233940653999999970e+00 2.190472000999999835e+00 0.000000000000000000e+00 1.008618170000000064e-01 -3.519888200000000078e-02 4.524506098999999892e+00
2.545091192000000113e+00 0.000000000000000000e+00 0.000000000000000000e+00 -1.233940653999999970e+00 2.190472000999999835e+00 0.000000000000000000e+00 1.008618170000000064e-01 -3.519888200000000078e-02 4.524506098999999892e+00
2.545091192000000113e+00 0.000000000000000000e+00 0.000000000000000000e+00 -1.233940653999999970e+00 2.190472000999999835e+00 0.000000000000000000e+00 1.008618170000000064e-01 -3.519888200000000078e-02 4.524506098999999892e+00
2.493985013000000084e+00 0.000000000000000000e+00 0.000000000000000000e+00 -1.215708690999999897e+00 2.135671567999999798e+00 0.000000000000000000e+00 -1.260561980000000082e-01 5.701494900000000227e-02 4.528179425000000258e+00
2.493985013000000084e+00 0.000000000000000000e+00 0.000000000000000000e+00 -1.215708690999999897e+00 2.135671567999999798e+00 0.000000000000000000e+00 -1.260561980000000082e-01 5.701494900000000227e-02 4.528179425000000258e+00
2.493985013000000084e+00 0.000000000000000000e+00 0.000000000000000000e+00 -1.215708690999999897e+00 2.135671567999999798e+00 0.000000000000000000e+00 -1.260561980000000082e-01 5.701494900000000227e-02 4.528179425000000258e+00
2.493985013000000084e+00 0.000000000000000000e+00 0.000000000000000000e+00 -1.215708690999999897e+00 2.135671567999999798e+00 0.000000000000000000e+00 -1.260561980000000082e-01 5.701494900000000227e-02 4.528179425000000258e+00
2.493985013000000084e+00 0.000000000000000000e+00 0.000000000000000000e+00 -1.215708690999999897e+00 2.135671567999999798e+00 0.000000000000000000e+00 -1.260561980000000082e-01 5.701494900000000227e-02 4.528179425000000258e+00
2.463676464999999816e+00 0.000000000000000000e+00 0.000000000000000000e+00 -1.191488737000000020e+00 2.162053493999999798e+00 0.000000000000000000e+00 2.678929199999999927e-02 4.015080499999999775e-02 4.539710545000000153e+00
2.463676464999999816e+00 0.000000000000000000e+00 0.000000000000000000e+00 -1.191488737000000020e+00 2.162053493999999798e+00 0.000000000000000000e+00 2.678929199999999927e-02 4.015080499999999775e-02 4.539710545000000153e+00
2.463676464999999816e+00 0.000000000000000000e+00 0.000000000000000000e+00 -1.191488737000000020e+00 2.162053493999999798e+00 0.000000000000000000e+00 2.678929199999999927e-02 4.015080499999999775e-02 4.539710545000000153e+00
2.463676464999999816e+00 0.000000000000000000e+00 0.000000000000000000e+00 -1.191488737000000020e+00 2.162053493999999798e+00 0.000000000000000000e+00 2.678929199999999927e-02 4.015080499999999775e-02 4.539710545000000153e+00
2.463676464999999816e+00 0.000000000000000000e+00 0.000000000000000000e+00 -1.191488737000000020e+00 2.162053493999999798e+00 0.000000000000000000e+00 2.678929199999999927e-02 4.015080499999999775e-02 4.539710545000000153e+00
2.495547665000000137e+00 0.000000000000000000e+00 0.000000000000000000e+00 -1.186482220000000032e+00 2.145934319000000201e+00 0.000000000000000000e+00 -7.761128700000000102e-02 -6.995567099999999705e-02 4.339563197000000372e+00
2.495547665000000137e+00 0.000000000000000000e+00 0.000000000000000000e+00 -1.186482220000000032e+00 2.145934319000000201e+00 0.000000000000000000e+00 -7.761128700000000102e-02 -6.995567099999999705e-02 4.339563197000000372e+00
2.495547665000000137e+00 0.000000000000000000e+00 0.000000000000000000e+00 -1.186482220000000032e+00 2.145934319000000201e+00 0.000000000000000000e+00 -7.761128700000000102e-02 -6.995567099999999705e-02 4.339563197000000372e+00
2.495547665000000137e+00 0.000000000000000000e+00 0.000000000000000000e+00 -1.186482220000000032e+00 2.145934319000000201e+00 0.000000000000000000e+00 -7.761128700000000102e-02 -6.995567099999999705e-02 4.339563197000000372e+00
2.495547665000000137e+00 0.000000000000000000e+00 0.000000000000000000e+00 -1.186482220000000032e+00 2.145934319000000201e+00 0.000000000000000000e+00 -7.761128700000000102e-02 -6.995567099999999705e-02 4.339563197000000372e+00
2.487189429999999923e+00 0.000000000000000000e+00 0.000000000000000000e+00 -1.202755650000000065e+00 2.126622189999999968e+00 0.000000000000000000e+00 -2.186570399999999970e-02 -3.089647699999999858e-02 4.479892183999999666e+00
2.487189429999999923e+00 0.000000000000000000e+00 0.000000000000000000e+00 -1.202755650000000065e+00 2.126622189999999968e+00 0.000000000000000000e+00 -2.186570399999999970e-02 -3.089647699999999858e-02 4.479892183999999666e+00
2.487189429999999923e+00 0.000000000000000000e+00 0.000000000000000000e+00 -1.202755650000000065e+00 2.126622189999999968e+00 0.000000000000000000e+00 -2.186570399999999970e-02 -3.089647699999999858e-02 4.479892183999999666e+00
2.487189429999999923e+00 0.000000000000000000e+00 0.000000000000000000e+00 -1.202755650000000065e+00 2.126622189999999968e+00 0.000000000000000000e+00 -2.186570399999999970e-02 -3.089647699999999858e-02 4.479892183999999666e+00
2.487189429999999923e+00 0.000000000000000000e+00 0.000000000000000000e+00 -1.202755650000000065e+00 2.126622189999999968e+00 0.000000000000000000e+00 -2.186570399999999970e-02 -3.089647699999999858e-02 4.479892183999999666e+00
2.414046474000000053e+00 0.000000000000000000e+00 0.000000000000000000e+00 -1.268249866999999975e+00 2.121816372000000062e+00 0.000000000000000000e+00 -3.474769700000000100e-02 1.212025250000000054e-01 4.421464713999999852e+00
2.414046474000000053e+00 0.000000000000000000e+00 0.000000000000000000e+00 -1.268249866999999975e+00 2.121816372000000062e+00 0.000000000000000000e+00 -3.474769700000000100e-02 1.212025250000000054e-01 4.421464713999999852e+00
2.414046474000000053e+00 0.000000000000000000e+00 0.000000000000000000e+00 -1.268249866999999975e+00 2.121816372000000062e+00 0.000000000000000000e+00 -3.474769700000000100e-02 1.212025250000000054e-01 4.421464713999999852e+00
2.414046474000000053e+00 0.000000000000000000e+00 0.000000000000000000e+00 -1.268249866999999975e+00 2.121816372000000062e+00 0.000000000000000000e+00 -3.474769700000000100e-02 1.212025250000000054e-01 4.421464713999999852e+00
2.414046474000000053e+00 0.000000000000000000e+00 0.000000000000000000e+00 -1.268249866999999975e+00 2.121816372000000062e+00 0.000000000000000000e+00 -3.474769700000000100e-02 1.212025250000000054e-01 4.421464713999999852e+00
2.432880335000000116e+00 0.000000000000000000e+00 0.000000000000000000e+00 -1.183499749999999962e+00 2.198886717000000157e+00 0.000000000000000000e+00 7.943935600000000263e-02 1.170440920000000024e-01 4.500558833999999564e+00
2.432880335000000116e+00 0.000000000000000000e+00 0.000000000000000000e+00 -1.183499749999999962e+00 2.198886717000000157e+00 0.000000000000000000e+00 7.943935600000000263e-02 1.170440920000000024e-01 4.500558833999999564e+00
2.432880335000000116e+00 0.000000000000000000e+00 0.000000000000000000e+00 -1.183499749999999962e+00 2.198886717000000157e+00 0.000000000000000000e+00 7.943935600000000263e-02 1.170440920000000024e-01 4.500558833999999564e+00
2.432880335000000116e+00 0.000000000000000000e+00 0.000000000000000000e+00 -1.183499749999999962e+00 2.198886717000000157e+00 0.000000000000000000e+00 7.943935600000000263e-02 1.170440920000000024e-01 4.500558833999999564e+00
2.432880335000000116e+00 0.000000000000000000e+00 0.000000000000000000e+00 -1.183499749999999962e+00 2.198886717000000157e+00 0.000000000000000000e+00 7.943935600000000263e-02 1.170440920000000024e-01 4.500558833999999564e+00
2.425563576000000054e+00 0.000000000000000000e+00 0.000000000000000000e+00 -1.241795516000000044e+00 2.096125599000000062e+00 0.000000000000000000e+00 1.125481180000000025e-01 -1.190817999999999955e-03 4.431961251999999796e+00
2.425563576000000054e+00 0.000000000000000000e+00 0.000000000000000000e+00 -1.241795516000000044e+00 2.096125599000000062e+00 0.000000000000000000e+00 1.125481180000000025e-01 -1.190817999999999955e-03 4.431961251999999796e+00
2.425563576000000054e+00 0.000000000000000000e+00 0.000000000000000000e+00 -1.241795516000000044e+00 2.096125599000000062e+00 0.000000000000000000e+00 1.125481180000000025e-01 -1.190817999999999955e-03 4.431961251999999796e+00
2.425563576000000054e+00 0.000000000000000000e+00 0.000000000000000000e+00 -1.241795516000000044e+00 2.096125599000000062e+00 0.000000000000000000e+00 1.125481180000000025e-01 -1.190817999999999955e-03 4.431961251999999796e+00
2.425563576000000054e+00 0.000000000000000000e+00 0.000000000000000000e+00 -1.241795516000000044e+00 2.096125599000000062e+00 0.000000000000000000e+00 1.125481180000000025e-01 -1.190817999999999955e-03 4.431961251999999796e+00
2.557917334999999959e+00 0.000000000000000000e+00 0.000000000000000000e+00 -1.278958668000000021e+00 2.215221393000000205e+00 0.000000000000000000e+00 0.000000000000000000e+00 0.000000000000000000e+00 4.584682474000000063e+00
2.557917334999999959e+00 0.000000000000000000e+00 0.000000000000000000e+00 -1.278958668000000021e+00 2.215221393000000205e+00 0.000000000000000000e+00 0.000000000000000000e+00 0.000000000000000000e+00 4.584682474000000063e+00
2.557917334999999959e+00 0.000000000000000000e+00 0.000000000000000000e+00 -1.278958668000000021e+00 2.215221393000000205e+00 0.000000000000000000e+00 0.000000000000000000e+00 0.000000000000000000e+00 4.584682474000000063e+00
2.557917334999999959e+00 0.000000000000000000e+00 0.000000000000000000e+00 -1.278958668000000021e+00 2.215221393000000205e+00 0.000000000000000000e+00 0.000000000000000000e+00 0.000000000000000000e+00 4.584682474000000063e+00
2.557917334999999959e+00 0.000000000000000000e+00 0.000000000000000000e+00 -1.278958668000000021e+00 2.215221393000000205e+00 0.000000000000000000e+00 0.000000000000000000e+00 0.000000000000000000e+00 4.584682474000000063e+00
2.568891822999999963e+00 0.000000000000000000e+00 0.000000000000000000e+00 -1.243641291999999954e+00 2.237040523000000114e+00 0.000000000000000000e+00 4.174070000000000102e-04 7.631800499999999432e-02 4.647563023000000015e+00
2.568891822999999963e+00 0.000000000000000000e+00 0.000000000000000000e+00 -1.243641291999999954e+00 2.237040523000000114e+00 0.000000000000000000e+00 4.174070000000000102e-04 7.631800499999999432e-02 4.647563023000000015e+00
2.568891822999999963e+00 0.000000000000000000e+00 0.000000000000000000e+00 -1.243641291999999954e+00 2.237040523000000114e+00 0.000000000000000000e+00 4.174070000000000102e-04 7.631800499999999432e-02 4.647563023000000015e+00
2.568891822999999963e+00 0.000000000000000000e+00 0.000000000000000000e+00 -1.243641291999999954e+00 2.237040523000000114e+00 0.000000000000000000e+00 4.174070000000000102e-04 7.631800499999999432e-02 4.647563023000000015e+00
2.568891822999999963e+00 0.000000000000000000e+00 0.000000000000000000e+00 -1.243641291999999954e+00 2.237040523000000114e+00 0.000000000000000000e+00 4.174070000000000102e-04 7.631800499999999432e-02 4.647563023000000015e+00
2.583068833000000009e+00 0.000000000000000000e+00 0.000000000000000000e+00 -1.279791265000000067e+00 2.161221832999999926e+00 0.000000000000000000e+00 1.115145049999999999e-01 1.877013400000000082e-02 4.595122429999999980e+00
2.583068833000000009e+00 0.000000000000000000e+00 0.000000000000000000e+00 -1.279791265000000067e+00 2.161221832999999926e+00 0.000000000000000000e+00 1.115145049999999999e-01 1.877013400000000082e-02 4.595122429999999980e+00
2.583068833000000009e+00 0.000000000000000000e+00 0.000000000000000000e+00 -1.279791265000000067e+00 2.161221832999999926e+00 0.000000000000000000e+00 1.115145049999999999e-01 1.877013400000000082e-02 4.595122429999999980e+00
2.583068833000000009e+00 0.000000000000000000e+00 0.000000000000000000e+00 -1.279791265000000067e+00 2.161221832999999926e+00 0.000000000000000000e+00 1.115145049999999999e-01 1.877013400000000082e-02 4.595122429999999980e+00
2.583068833000000009e+00 0.000000000000000000e+00 0.000000000000000000e+00 -1.279791265000000067e+00 2.161221832999999926e+00 0.000000000000000000e+00 1.115145049999999999e-01 1.877013400000000082e-02 4.595122429999999980e+00
2.509572009000000214e+00 0.000000000000000000e+00 0.000000000000000000e+00 -1.228809432000000035e+00 2.154485911000000087e+00 0.000000000000000000e+00 -1.398881879999999966e-01 4.079377800000000276e-02 4.667363421000000123e+00
2.509572009000000214e+00 0.000000000000000000e+00 0.000000000000000000e+00 -1.228809432000000035e+00 2.154485911000000087e+00 0.000000000000000000e+00 -1.398881879999999966e-01 4.079377800000000276e-02 4.667363421000000123e+00
2.509572009000000214e+00 0.000000000000000000e+00 0.000000000000000000e+00 -1.228809432000000035e+00 2.154485911000000087e+00 0.000000000000000000e+00 -1.398881879999999966e-01 4.079377800000000276e-02 4.667363421000000123e+00
2.509572009000000214e+00 0.000000000000000000e+00 0.000000000000000000e+00 -1.228809432000000035e+00 2.154485911000000087e+00 0.000000000000000000e+00 -1.398881879999999966e-01 4.079377800000000276e-02 4.667363421000000123e+00
2.509572009000000214e+00 0.000000000000000000e+00 0.000000000000000000e+00 -1.228809432000000035e+00 2.154485911000000087e+00 0.000000000000000000e+00 -1.398881879999999966e-01 4.079377800000000276e-02 4.667363421000000123e+00
2.598046248000000169e+00 0.000000000000000000e+00 0.000000000000000000e+00 -1.346607757999999988e+00 2.180108021000000118e+00 0.000000000000000000e+00 -7.929637900000000017e-02 1.206850559999999989e-01 4.538940990999999592e+00
2.598046248000000169e+00 0.000000000000000000e+00 0.000000000000000000e+00 -1.346607757999999988e+00 2.180108021000000118e+00 0.000000000000000000e+00 -7.929637900000000017e-02 1.206850559999999989e-01 4.538940990999999592e+00
2.598046248000000169e+00 0.000000000000000000e+00 0.000000000000000000e+00 -1.346607757999999988e+00 2.180108021000000118e+00 0.000000000000000000e+00 -7.929637900000000017e-02 1.206850559999999989e-01 4.538940990999999592e+00
2.598046248000000169e+00 0.000000000000000000e+00 0.000000000000000000e+00 -1.346607757999999988e+00 2.180108021000000118e+00 0.000000000000000000e+00 -7.929637900000000017e-02 1.206850559999999989e-01 4.538940990999999592e+00
2.598046248000000169e+00 0.000000000000000000e+00 0.000000000000000000e+00 -1.346607757999999988e+00 2.180108021000000118e+00 0.000000000000000000e+00 -7.929637900000000017e-02 1.206850559999999989e-01 4.538940990999999592e+00
2.596727528000000174e+00 0.000000000000000000e+00 0.000000000000000000e+00 -1.264190762999999995e+00 2.277627464000000046e+00 0.000000000000000000e+00 -1.326026489999999891e-01 -6.392343699999999962e-02 4.658759148999999766e+00
2.596727528000000174e+00 0.000000000000000000e+00 0.000000000000000000e+00 -1.264190762999999995e+00 2.277627464000000046e+00 0.000000000000000000e+00 -1.326026489999999891e-01 -6.392343699999999962e-02 4.658759148999999766e+00
2.596727528000000174e+00 0.000000000000000000e+00 0.000000000000000000e+00 -1.264190762999999995e+00 2.277627464000000046e+00 0.000000000000000000e+00 -1.326026489999999891e-01 -6.392343699999999962e-02 4.658759148999999766e+00
2.596727528000000174e+00 0.000000000000000000e+00 0.000000000000000000e+00 -1.264190762999999995e+00 2.277627464000000046e+00 0.000000000000000000e+00 -1.326026489999999891e-01 -6.392343699999999962e-02 4.658759148999999766e+00
2.596727528000000174e+00 0.000000000000000000e+00 0.000000000000000000e+00 -1.264190762999999995e+00 2.277627464000000046e+00 0.000000000000000000e+00 -1.326026489999999891e-01 -6.392343699999999962e-02 4.658759148999999766e+00
2.574289065999999959e+00 0.000000000000000000e+00 0.000000000000000000e+00 -1.252835386000000106e+00 2.150279611999999840e+00 0.000000000000000000e+00 -1.342526559999999980e-01 -1.216636779999999973e-01 4.541448679000000155e+00
2.574289065999999959e+00 0.000000000000000000e+00 0.000000000000000000e+00 -1.252835386000000106e+00 2.150279611999999840e+00 0.000000000000000000e+00 -1.342526559999999980e-01 -1.216636779999999973e-01 4.541448679000000155e+00