0.000000000000000000e+00 1.390789999999999971e+00 1.079399999999999915e+00 1.204460000000000086e+00 6.953899999999999526e-01 3.238210000000000033e+00
-5.000000000000000104e-04 1.391369999999999996e+00 1.081730000000000080e+00 1.204949999999999966e+00 6.948100000000000387e-01 3.235879999999999868e+00
-9.899999999999999946e-04 1.391950000000000021e+00 1.084049999999999958e+00 1.205449999999999910e+00 6.942300000000000137e-01 3.233560000000000212e+00
-1.490000000000000005e-03 1.392530000000000046e+00 1.086370000000000058e+00 1.205950000000000077e+00 6.936499999999999888e-01 3.231240000000000112e+00
-1.990000000000000015e-03 1.393110000000000070e+00 1.088670000000000027e+00 1.206439999999999957e+00 6.930699999999999639e-01 3.228940000000000143e+00
-1.772999999999999923e-02 1.345110000000000028e+00 1.104340000000000099e+00 1.227260000000000018e+00 6.101299999999999502e-01 3.318569999999999798e+00
-1.566000000000000031e-02 1.346090000000000009e+00 1.105210000000000026e+00 1.225190000000000001e+00 6.091600000000000348e-01 3.317699999999999871e+00
-1.358000000000000006e-02 1.347050000000000081e+00 1.106079999999999952e+00 1.223109999999999919e+00 6.081900000000000084e-01 3.316829999999999945e+00
-1.150999999999999940e-02 1.348019999999999996e+00 1.106950000000000101e+00 1.221030000000000060e+00 6.072300000000000475e-01 3.315960000000000019e+00
-9.429999999999999147e-03 1.348980000000000068e+00 1.107830000000000092e+00 1.218949999999999978e+00 6.062699999999999756e-01 3.315090000000000092e+00
1.623000000000000137e-02 1.421699999999999964e+00 1.086440000000000072e+00 1.233209999999999917e+00 7.634300000000000530e-01 3.271500000000000075e+00
1.683000000000000121e-02 1.421030000000000015e+00 1.084170000000000078e+00 1.232609999999999983e+00 7.641000000000000014e-01 3.273769999999999847e+00
1.743000000000000105e-02 1.420369999999999910e+00 1.081900000000000084e+00 1.232010000000000050e+00 7.647599999999999953e-01 3.276040000000000063e+00
1.804000000000000048e-02 1.419710000000000027e+00 1.079630000000000090e+00 1.231409999999999894e+00 7.654199999999999893e-01 3.278300000000000214e+00
1.864000000000000032e-02 1.419049999999999923e+00 1.077390000000000070e+00 1.230799999999999894e+00 7.660799999999999832e-01 3.280549999999999855e+00
8.229999999999999469e-03 1.412109999999999976e+00 1.072340000000000071e+00 1.153589999999999893e+00 7.016200000000000214e-01 3.219920000000000115e+00
6.400000000000000307e-03 1.411929999999999907e+00 1.073960000000000026e+00 1.155429999999999957e+00 7.017999999999999794e-01 3.218300000000000161e+00
4.559999999999999817e-03 1.411759999999999904e+00 1.075569999999999915e+00 1.157270000000000021e+00 7.019699999999999829e-01 3.216689999999999827e+00
2.710000000000000169e-03 1.411589999999999900e+00 1.077169999999999961e+00 1.159110000000000085e+00 7.021399999999999864e-01 3.215079999999999938e+00
8.700000000000000051e-04 1.411429999999999962e+00 1.078770000000000007e+00 1.160949999999999926e+00 7.023000000000000353e-01 3.213480000000000114e+00
4.243000000000000244e-02 1.384009999999999962e+00 1.083429999999999893e+00 1.284240000000000048e+00 6.764200000000000212e-01 3.247059999999999835e+00
4.231000000000000039e-02 1.385669999999999957e+00 1.085220000000000073e+00 1.284359999999999946e+00 6.747699999999999809e-01 3.245270000000000099e+00
4.218999999999999834e-02 1.387320000000000109e+00 1.087010000000000032e+00 1.284480000000000066e+00 6.731099999999999861e-01 3.243479999999999919e+00
4.206000000000000016e-02 1.388980000000000103e+00 1.088789999999999925e+00 1.284610000000000030e+00 6.714599999999999458e-01 3.241699999999999804e+00
4.193000000000000199e-02 1.390619999999999967e+00 1.090570000000000039e+00 1.284739999999999993e+00 6.698100000000000165e-01 3.239920000000000133e+00
-5.065999999999999670e-02 1.426220000000000043e+00 1.094379999999999908e+00 1.145489999999999897e+00 7.821700000000000319e-01 3.292679999999999829e+00
-4.948000000000000315e-02 1.428369999999999918e+00 1.094300000000000050e+00 1.144309999999999938e+00 7.800200000000000466e-01 3.292759999999999909e+00
-4.830000000000000265e-02 1.430520000000000014e+00 1.094230000000000036e+00 1.143129999999999979e+00 7.778699999999999504e-01 3.292829999999999924e+00
-4.712000000000000216e-02 1.432679999999999954e+00 1.094160000000000021e+00 1.141939999999999955e+00 7.757199999999999651e-01 3.292899999999999938e+00
-4.592999999999999861e-02 1.434830000000000050e+00 1.094100000000000072e+00 1.140749999999999931e+00 7.735699999999999799e-01 3.292959999999999887e+00
4.098999999999999866e-02 1.433969999999999967e+00 1.110460000000000003e+00 1.186080000000000023e+00 7.146000000000000130e-01 3.319209999999999994e+00
4.048999999999999821e-02 1.436339999999999950e+00 1.110049999999999981e+00 1.186590000000000034e+00 7.122300000000000297e-01 3.319620000000000015e+00
3.998000000000000165e-02 1.438719999999999999e+00 1.109639999999999960e+00 1.187100000000000044e+00 7.098499999999999810e-01 3.320030000000000037e+00
3.946000000000000202e-02 1.441100000000000048e+00 1.109229999999999938e+00 1.187610000000000054e+00 7.074700000000000433e-01 3.320440000000000058e+00
3.894999999999999851e-02 1.443489999999999940e+00 1.108810000000000073e+00 1.188129999999999908e+00 7.050800000000000400e-01 3.320860000000000145e+00
7.380000000000000275e-03 1.376800000000000024e+00 1.107509999999999994e+00 1.268950000000000022e+00 7.335399999999999698e-01 3.318740000000000023e+00
9.400000000000000369e-03 1.375399999999999956e+00 1.107369999999999965e+00 1.266939999999999955e+00 7.349400000000000377e-01 3.318869999999999987e+00
1.141000000000000000e-02 1.374000000000000110e+00 1.107229999999999936e+00 1.264930000000000110e+00 7.363399999999999945e-01 3.319010000000000016e+00
1.341999999999999964e-02 1.372600000000000042e+00 1.107089999999999907e+00 1.262909999999999977e+00 7.377399999999999514e-01 3.319150000000000045e+00
1.544000000000000060e-02 1.371189999999999909e+00 1.106950000000000101e+00 1.260899999999999910e+00 7.391499999999999737e-01 3.319290000000000074e+00
7.409999999999999920e-03 1.354240000000000110e+00 1.106810000000000072e+00 1.205559999999999965e+00 6.032899999999999929e-01 3.318220000000000169e+00
9.769999999999999171e-03 1.354440000000000088e+00 1.107450000000000045e+00 1.203209999999999891e+00 6.030900000000000150e-01 3.317579999999999973e+00
1.212000000000000056e-02 1.354630000000000001e+00 1.108079999999999954e+00 1.200849999999999973e+00 6.028900000000000370e-01 3.316949999999999843e+00
1.447999999999999982e-02 1.354829999999999979e+00 1.108719999999999928e+00 1.198499999999999899e+00 6.026899999999999480e-01 3.316310000000000091e+00
1.683000000000000121e-02 1.355029999999999957e+00 1.109350000000000058e+00 1.196139999999999981e+00 6.024899999999999700e-01 3.315679999999999961e+00
-1.777000000000000107e-02 1.437189999999999968e+00 1.089660000000000073e+00 1.216480000000000006e+00 7.454100000000000170e-01 3.284409999999999830e+00
-1.744000000000000064e-02 1.438709999999999933e+00 1.091550000000000020e+00 1.216150000000000064e+00 7.438799999999999857e-01 3.282509999999999817e+00
-1.711000000000000021e-02 1.440239999999999965e+00 1.093439999999999968e+00 1.215819999999999901e+00 7.423600000000000199e-01 3.280619999999999870e+00
-1.677999999999999978e-02 1.441769999999999996e+00 1.095329999999999915e+00 1.215489999999999959e+00 7.408299999999999885e-01 3.278739999999999988e+00
-1.643999999999999975e-02 1.443300000000000027e+00 1.097210000000000019e+00 1.215149999999999952e+00 7.392900000000000027e-01 3.276850000000000041e+00
0.000000000000000000e+00 1.433799999999999963e+00 1.112789999999999946e+00 1.241710000000000091e+00 7.168999999999999817e-01 3.338360000000000216e+00
-9.600000000000000243e-04 1.436050000000000049e+00 1.112659999999999982e+00 1.242660000000000098e+00 7.146500000000000075e-01 3.338490000000000180e+00
-1.910000000000000022e-03 1.438299999999999912e+00 1.112530000000000019e+00 1.243619999999999948e+00 7.124000000000000332e-01 3.338620000000000143e+00
-2.870000000000000155e-03 1.440560000000000063e+00 1.112400000000000055e+00 1.244569999999999954e+00 7.101399999999999935e-01 3.338750000000000107e+00
-3.820000000000000045e-03 1.442809999999999926e+00 1.112270000000000092e+00 1.245530000000000026e+00 7.078900000000000192e-01 3.338880000000000070e+00
-1.872000000000000053e-02 1.440350000000000019e+00 1.123920000000000030e+00 1.215989999999999904e+00 6.431200000000000250e-01 3.372980000000000089e+00
-1.635999999999999954e-02 1.440350000000000019e+00 1.124560000000000004e+00 1.213629999999999987e+00 6.431099999999999595e-01 3.372339999999999893e+00
-1.399000000000000070e-02 1.440369999999999928e+00 1.125199999999999978e+00 1.211260000000000003e+00 6.431000000000000050e-01 3.371700000000000141e+00
-1.162000000000000012e-02 1.440390000000000059e+00 1.125839999999999952e+00 1.208879999999999955e+00 6.430799999999999850e-01 3.371070000000000011e+00
-9.239999999999999949e-03 1.440420000000000034e+00 1.126470000000000082e+00 1.206509999999999971e+00 6.430500000000000105e-01 3.370429999999999815e+00
5.591999999999999749e-02 1.454399999999999915e+00 1.129329999999999945e+00 1.354649999999999910e+00 6.976900000000000324e-01 3.394839999999999858e+00
5.378999999999999754e-02 1.455559999999999965e+00 1.128989999999999938e+00 1.356789999999999941e+00 6.965400000000000480e-01 3.395179999999999865e+00
5.165000000000000147e-02 1.456709999999999949e+00 1.128659999999999997e+00 1.358929999999999971e+00 6.953799999999999981e-01 3.395509999999999806e+00
4.950999999999999845e-02 1.457859999999999934e+00 1.128330000000000055e+00 1.361059999999999937e+00 6.942300000000000137e-01 3.395849999999999813e+00
4.737999999999999851e-02 1.459009999999999918e+00 1.127990000000000048e+00 1.363199999999999967e+00 6.930800000000000294e-01 3.396180000000000199e+00
-1.672999999999999834e-02 1.437000000000000055e+00 1.132589999999999986e+00 1.160069999999999935e+00 7.554499999999999549e-01 3.392959999999999976e+00
-1.895000000000000157e-02 1.436190000000000078e+00 1.131960000000000077e+00 1.162300000000000111e+00 7.562499999999999778e-01 3.393590000000000106e+00
-2.118000000000000091e-02 1.435389999999999944e+00 1.131329999999999947e+00 1.164530000000000065e+00 7.570599999999999552e-01 3.394229999999999858e+00
-2.341000000000000025e-02 1.434579999999999966e+00 1.130689999999999973e+00 1.166760000000000019e+00 7.578700000000000436e-01 3.394859999999999989e+00
-2.563999999999999960e-02 1.433769999999999989e+00 1.130060000000000064e+00 1.168989999999999974e+00 7.586800000000000210e-01 3.395490000000000119e+00
3.767999999999999822e-02 1.455030000000000046e+00 1.130980000000000096e+00 1.269770000000000065e+00 7.512400000000000189e-01 3.402149999999999785e+00
3.592999999999999666e-02 1.456350000000000033e+00 1.129879999999999995e+00 1.271519999999999984e+00 7.499200000000000310e-01 3.403249999999999886e+00
3.416999999999999899e-02 1.457670000000000021e+00 1.128789999999999960e+00 1.273269999999999902e+00 7.485899999999999777e-01 3.404339999999999922e+00
3.241999999999999743e-02 1.459000000000000075e+00 1.127699999999999925e+00 1.275030000000000108e+00 7.472699999999999898e-01 3.405429999999999957e+00
3.065999999999999975e-02 1.460329999999999906e+00 1.126619999999999955e+00 1.276780000000000026e+00 7.459400000000000475e-01 3.406509999999999927e+00
2.208999999999999853e-02 1.412730000000000041e+00 1.085749999999999993e+00 1.207940000000000014e+00 6.616199999999999859e-01 3.253550000000000164e+00
2.352999999999999883e-02 1.413960000000000106e+00 1.084200000000000053e+00 1.206499999999999906e+00 6.603900000000000325e-01 3.255110000000000170e+00
2.495999999999999955e-02 1.415189999999999948e+00 1.082649999999999890e+00 1.205070000000000086e+00 6.591700000000000337e-01 3.256660000000000110e+00
2.639000000000000026e-02 1.416409999999999947e+00 1.081099999999999950e+00 1.203640000000000043e+00 6.579399999999999693e-01 3.258210000000000051e+00
2.781000000000000139e-02 1.417640000000000011e+00 1.079550000000000010e+00 1.202220000000000066e+00 6.567100000000000160e-01 3.259759999999999991e+00
2.930999999999999925e-02 1.406120000000000037e+00 1.123850000000000016e+00 1.236730000000000107e+00 6.831899999999999640e-01 3.365250000000000075e+00
2.787999999999999853e-02 1.404369999999999896e+00 1.124779999999999891e+00 1.238159999999999927e+00 6.849499999999999478e-01 3.364320000000000199e+00
2.644000000000000170e-02 1.402609999999999912e+00 1.125720000000000054e+00 1.239600000000000035e+00 6.866999999999999771e-01 3.363379999999999814e+00
2.500000000000000139e-02 1.400849999999999929e+00 1.126649999999999929e+00 1.241049999999999986e+00 6.884599999999999609e-01 3.362449999999999939e+00
2.355000000000000149e-02 1.399100000000000010e+00 1.127580000000000027e+00 1.242490000000000094e+00 6.902099999999999902e-01 3.361520000000000064e+00
-4.315000000000000085e-02 1.444709999999999939e+00 1.108170000000000099e+00 1.155909999999999993e+00 8.017900000000000027e-01 3.315459999999999852e+00
-4.467000000000000137e-02 1.443429999999999991e+00 1.106729999999999992e+00 1.157429999999999959e+00 8.030699999999999505e-01 3.316889999999999894e+00
-4.617999999999999883e-02 1.442150000000000043e+00 1.105299999999999949e+00 1.158940000000000081e+00 8.043500000000000094e-01 3.318330000000000002e+00
-4.768000000000000016e-02 1.440870000000000095e+00 1.103869999999999907e+00 1.160439999999999916e+00 8.056299999999999573e-01 3.319760000000000044e+00
-4.918999999999999762e-02 1.439599999999999991e+00 1.102440000000000087e+00 1.161939999999999973e+00 8.068999999999999506e-01 3.321180000000000021e+00
4.086999999999999661e-02 1.498760000000000092e+00 1.123320000000000096e+00 1.287860000000000005e+00 8.224500000000000144e-01 3.374470000000000081e+00
3.887999999999999790e-02 1.498369999999999980e+00 1.124679999999999902e+00 1.289849999999999941e+00 8.228400000000000158e-01 3.373110000000000053e+00
3.688000000000000306e-02 1.497980000000000089e+00 1.126039999999999930e+00 1.291849999999999943e+00 8.232300000000000173e-01 3.371750000000000025e+00
3.486999999999999822e-02 1.497600000000000042e+00 1.127399999999999958e+00 1.293860000000000010e+00 8.236099999999999532e-01 3.370389999999999997e+00
3.287000000000000338e-02 1.497219999999999995e+00 1.128759999999999986e+00 1.295860000000000012e+00 8.239900000000000002e-01 3.369029999999999969e+00
7.860000000000000667e-03 1.401699999999999946e+00 1.107390000000000096e+00 1.285860000000000003e+00 7.006700000000000150e-01 3.321419999999999817e+00
7.799999999999999642e-03 1.403580000000000050e+00 1.105830000000000091e+00 1.285930000000000017e+00 6.987799999999999567e-01 3.322979999999999823e+00
7.729999999999999892e-03 1.405469999999999997e+00 1.104270000000000085e+00 1.285989999999999966e+00 6.968999999999999639e-01 3.324539999999999829e+00
7.669999999999999735e-03 1.407359999999999944e+00 1.102710000000000079e+00 1.286049999999999915e+00 6.950100000000000167e-01 3.326090000000000213e+00
7.609999999999999577e-03 1.409240000000000048e+00 1.101159999999999917e+00 1.286110000000000086e+00 6.931300000000000239e-01 3.327650000000000219e+00
0.000000000000000000e+00 1.476809999999999956e+00 1.146169999999999911e+00 1.278960000000000097e+00 7.384100000000000108e-01 3.438509999999999955e+00
4.800000000000000122e-04 1.477020000000000000e+00 1.148560000000000025e+00 1.278480000000000061e+00 7.381999999999999673e-01 3.436119999999999841e+00
9.499999999999999981e-04 1.477230000000000043e+00 1.150949999999999918e+00 1.278010000000000090e+00 7.379900000000000349e-01 3.433730000000000171e+00
1.430000000000000064e-03 1.477440000000000087e+00 1.153340000000000032e+00 1.277530000000000054e+00 7.377799999999999914e-01 3.431340000000000057e+00
1.910000000000000022e-03 1.477649999999999908e+00 1.155720000000000081e+00 1.277050000000000018e+00 7.375699999999999479e-01 3.428960000000000008e+00
3.235999999999999988e-02 1.509279999999999955e+00 1.157529999999999948e+00 1.299660000000000037e+00 8.032399999999999540e-01 3.487130000000000063e+00
3.207000000000000128e-02 1.507880000000000109e+00 1.159520000000000106e+00 1.299949999999999939e+00 8.046400000000000219e-01 3.485139999999999905e+00
3.178000000000000269e-02 1.506480000000000041e+00 1.161510000000000042e+00 1.300240000000000062e+00 8.060399999999999787e-01 3.483150000000000190e+00
3.148999999999999716e-02 1.505079999999999973e+00 1.163499999999999979e+00 1.300529999999999964e+00 8.074299999999999811e-01 3.481160000000000032e+00
3.119999999999999857e-02 1.503689999999999971e+00 1.165489999999999915e+00 1.300820000000000087e+00 8.088300000000000489e-01 3.479169999999999874e+00
3.336999999999999689e-02 1.444479999999999986e+00 1.142220000000000013e+00 1.382169999999999899e+00 7.317700000000000315e-01 3.448640000000000150e+00
3.232999999999999763e-02 1.445959999999999912e+00 1.140570000000000084e+00 1.383210000000000051e+00 7.302899999999999947e-01 3.450289999999999857e+00
3.128999999999999837e-02 1.447440000000000060e+00 1.138929999999999998e+00 1.384249999999999980e+00 7.288099999999999579e-01 3.451929999999999943e+00
3.024999999999999911e-02 1.448909999999999920e+00 1.137299999999999978e+00 1.385280000000000067e+00 7.273399999999999865e-01 3.453559999999999963e+00
2.920999999999999985e-02 1.450380000000000003e+00 1.135669999999999957e+00 1.386319999999999997e+00 7.258700000000000152e-01 3.455189999999999984e+00
-2.229000000000000078e-02 1.450369999999999937e+00 1.164020000000000055e+00 1.158430000000000071e+00 7.485300000000000287e-01 3.500760000000000094e+00
-2.086000000000000007e-02 1.451049999999999951e+00 1.162150000000000016e+00 1.157000000000000028e+00 7.478500000000000147e-01 3.502619999999999845e+00
-1.942999999999999935e-02 1.451729999999999965e+00 1.160290000000000044e+00 1.155569999999999986e+00 7.471600000000000463e-01 3.504490000000000105e+00
-1.799999999999999864e-02 1.452420000000000044e+00 1.158430000000000071e+00 1.154139999999999944e+00 7.464800000000000324e-01 3.506339999999999790e+00
-1.658000000000000099e-02 1.453100000000000058e+00 1.156579999999999941e+00 1.152719999999999967e+00 7.458000000000000185e-01 3.508199999999999985e+00
-4.959000000000000213e-02 1.485389999999999988e+00 1.136970000000000036e+00 1.222469999999999946e+00 8.187299999999999578e-01 3.410470000000000113e+00
-4.977000000000000174e-02 1.486599999999999921e+00 1.134849999999999914e+00 1.222660000000000080e+00 8.175200000000000244e-01 3.412589999999999790e+00
-4.995999999999999747e-02 1.487800000000000011e+00 1.132740000000000080e+00 1.222839999999999927e+00 8.163200000000000456e-01 3.414709999999999912e+00
-5.013999999999999707e-02 1.489009999999999945e+00 1.130630000000000024e+00 1.223030000000000062e+00 8.151100000000000012e-01 3.416819999999999968e+00
-5.031999999999999668e-02 1.490210000000000035e+00 1.128519999999999968e+00 1.223209999999999908e+00 8.139100000000000223e-01 3.418919999999999959e+00
-5.080000000000000314e-03 1.509330000000000060e+00 1.160870000000000068e+00 1.208820000000000006e+00 7.101399999999999935e-01 3.494689999999999852e+00
-5.680000000000000153e-03 1.511689999999999978e+00 1.160630000000000051e+00 1.209419999999999940e+00 7.077799999999999647e-01 3.494920000000000027e+00
-6.279999999999999992e-03 1.514059999999999961e+00 1.160400000000000098e+00 1.210010000000000030e+00 7.054099999999999815e-01 3.495159999999999823e+00
-6.870000000000000238e-03 1.516420000000000101e+00 1.160169999999999924e+00 1.210609999999999964e+00 7.030399999999999983e-01 3.495389999999999997e+00
-7.470000000000000077e-03 1.518790000000000084e+00 1.159939999999999971e+00 1.211209999999999898e+00 7.006799999999999695e-01 3.495620000000000172e+00
-7.640000000000000090e-03 1.405729999999999924e+00 1.133369999999999989e+00 1.200679999999999970e+00 6.263999999999999568e-01 3.404150000000000009e+00
-6.749999999999999924e-03 1.403469999999999995e+00 1.133019999999999916e+00 1.199799999999999978e+00 6.286599999999999966e-01 3.404500000000000082e+00
-5.870000000000000218e-03 1.401210000000000067e+00 1.132670000000000066e+00 1.198919999999999986e+00 6.309299999999999908e-01 3.404850000000000154e+00
-4.989999999999999644e-03 1.398940000000000072e+00 1.132319999999999993e+00 1.198039999999999994e+00 6.331999999999999851e-01 3.405199999999999783e+00
-4.120000000000000398e-03 1.396660000000000013e+00 1.131979999999999986e+00 1.197160000000000002e+00 6.354699999999999793e-01 3.405539999999999790e+00
5.319999999999999729e-02 1.439959999999999907e+00 1.161089999999999955e+00 1.397999999999999909e+00 6.731800000000000006e-01 3.473539999999999850e+00
5.167999999999999677e-02 1.438399999999999901e+00 1.162209999999999965e+00 1.399520000000000097e+00 6.747400000000000064e-01 3.472420000000000062e+00
5.016000000000000320e-02 1.436839999999999895e+00 1.163340000000000041e+00 1.401040000000000063e+00 6.763000000000000123e-01 3.471299999999999830e+00
4.862999999999999962e-02 1.435270000000000046e+00 1.164449999999999985e+00 1.402570000000000094e+00 6.778600000000000181e-01 3.470180000000000042e+00
4.710999999999999910e-02 1.433699999999999974e+00 1.165569999999999995e+00 1.404090000000000060e+00 6.794299999999999784e-01 3.469059999999999810e+00
-5.020000000000000157e-03 1.469870000000000010e+00 1.164789999999999992e+00 1.331860000000000044e+00 7.940099999999999936e-01 3.471830000000000194e+00
-5.060000000000000261e-03 1.472140000000000004e+00 1.163850000000000051e+00 1.331890000000000018e+00 7.917499999999999538e-01 3.472770000000000135e+00
-5.089999999999999906e-03 1.474399999999999933e+00 1.162919999999999954e+00 1.331930000000000058e+00 7.894799999999999596e-01 3.473700000000000010e+00
-5.130000000000000011e-03 1.476669999999999927e+00 1.161980000000000013e+00 1.331960000000000033e+00 7.872200000000000308e-01 3.474639999999999951e+00
-5.159999999999999656e-03 1.478930000000000078e+00 1.161040000000000072e+00 1.331990000000000007e+00 7.849500000000000366e-01 3.475579999999999892e+00
-5.069999999999999854e-03 1.468830000000000080e+00 1.113760000000000083e+00 1.339639999999999942e+00 7.580500000000000016e-01 3.353250000000000064e+00
-5.020000000000000157e-03 1.470639999999999947e+00 1.112109999999999932e+00 1.339579999999999993e+00 7.562400000000000233e-01 3.354900000000000215e+00
-4.959999999999999999e-03 1.472439999999999971e+00 1.110460000000000003e+00 1.339520000000000044e+00 7.544399999999999995e-01 3.356549999999999923e+00
-4.899999999999999842e-03 1.474250000000000060e+00 1.108819999999999917e+00 1.339460000000000095e+00 7.526300000000000212e-01 3.358190000000000008e+00
-4.830000000000000092e-03 1.476050000000000084e+00 1.107189999999999896e+00 1.339399999999999924e+00 7.508299999999999974e-01 3.359820000000000029e+00
