-1.806050704000000096e+01
-1.806032439999999895e+01
-1.805977554000000040e+01
-1.805886446999999961e+01
-1.805759692000000172e+01
-1.813375066000000047e+01
-1.813386357999999987e+01
-1.813393427000000102e+01
-1.813396394000000100e+01
-1.813395321000000138e+01
-1.809137267999999921e+01
-1.809090025000000068e+01
-1.809010024999999899e+01
-1.808897758999999894e+01
-1.808753855000000144e+01
-1.809676955999999848e+01
-1.809695626999999973e+01
-1.809696798999999956e+01
-1.809680687000000177e+01
-1.809647593000000043e+01
-1.815770098000000132e+01
-1.815721850999999987e+01
-1.815655152000000072e+01
-1.815570337000000123e+01
-1.815467686999999941e+01
-1.812287979999999976e+01
-1.812315860000000001e+01
-1.812344789999999861e+01
-1.812374992000000162e+01
-1.812406464000000028e+01
-1.814503188000000122e+01
-1.814586936999999978e+01
-1.814668152000000134e+01
-1.814746763000000129e+01
-1.814822690000000094e+01
-1.806754911000000163e+01
-1.806795187999999897e+01
-1.806834539999999834e+01
-1.806872999999999863e+01
-1.806910535999999823e+01
-1.804781845999999845e+01
-1.804778732999999846e+01
-1.804773216999999974e+01
-1.804765450000000016e+01
-1.804755503000000161e+01
-1.819619186999999982e+01
-1.819644480999999914e+01
-1.819648989999999955e+01
-1.819632761000000087e+01
-1.819595963000000083e+01
-1.822073035000000019e+01
-1.822073727000000076e+01
-1.822075367000000057e+01
-1.822078064000000097e+01
-1.822081790000000012e+01
-1.824436100999999866e+01
-1.824461914999999834e+01
-1.824487543000000045e+01
-1.824512594000000121e+01
-1.824538062999999966e+01
-1.816539557000000116e+01
-1.816549214999999862e+01
-1.816559673000000075e+01
-1.816571031999999875e+01
-1.816583413000000036e+01
-1.821829812000000004e+01
-1.821852644999999882e+01
-1.821873772000000002e+01
-1.821893183999999977e+01
-1.821910824000000062e+01
-1.821578475000000097e+01
-1.821598064999999878e+01
-1.821613307000000148e+01
-1.821624385999999873e+01
-1.821631424999999993e+01
-1.821065989999999957e+01
-1.821034138999999996e+01
-1.820988174000000015e+01
-1.820928169999999824e+01
-1.820854317999999950e+01
-1.822295649000000139e+01
-1.822323254000000148e+01
-1.822346521000000052e+01
-1.822365484999999907e+01
-1.822380151999999853e+01
-1.818310671000000056e+01
-1.818276213000000041e+01
-1.818230920999999967e+01
-1.818174789000000047e+01
-1.818107861000000014e+01
-1.823630912999999865e+01
-1.823637918000000013e+01
-1.823638555000000139e+01
-1.823632934000000105e+01
-1.823621128999999996e+01
-1.815957803999999953e+01
-1.815957092000000017e+01
-1.815942894999999879e+01
-1.815915306000000129e+01
-1.815874462000000022e+01
-1.809101088999999973e+01
-1.809091061000000167e+01
-1.809060944000000148e+01
-1.809010823999999928e+01
-1.808940875000000048e+01
-1.800840821999999974e+01
-1.800852098000000012e+01
-1.800852111000000022e+01
-1.800840864999999980e+01
-1.800818406000000138e+01
-1.813832423999999932e+01
-1.813780672000000038e+01
-1.813719899000000169e+01
-1.813650288999999916e+01
-1.813572015000000093e+01
-1.814744894000000031e+01
-1.814721129000000133e+01
-1.814685543999999950e+01
-1.814637343000000058e+01
-1.814577149000000134e+01
-1.813468729999999951e+01
-1.813429720999999972e+01
-1.813375836000000163e+01
-1.813307255000000140e+01
-1.813223660999999964e+01
-1.788371447000000103e+01
-1.788383182000000104e+01
-1.788395630000000125e+01
-1.788408766999999955e+01
-1.788422591999999867e+01
-1.818756360000000072e+01
-1.818792175000000100e+01
-1.818829414000000000e+01
-1.818868236000000138e+01
-1.818908676999999940e+01
-1.808937342000000115e+01
-1.808963595000000169e+01
-1.808986455000000149e+01
-1.809005172999999900e+01
-1.809019861999999890e+01
-1.815707383000000164e+01
-1.815720954000000020e+01
-1.815732437999999860e+01
-1.815741402000000093e+01
-1.815747767999999951e+01
-1.816633569000000037e+01
-1.816605184999999878e+01
-1.816567115000000143e+01
-1.816519467000000176e+01
-1.816462388000000061e+01
