-9.999999999999999547e-07 -3.000000000000000076e-06 -1.999999999999999909e-06 -9.999999999999999547e-07 1.999999999999999909e-06 3.000000000000000076e-06
-3.190000000000000019e-04 3.820000000000000153e-04 -8.024000000000000576e-02 2.959999999999999849e-04 -3.869999999999999742e-04 8.023600000000000176e-02
-1.191000000000000001e-03 1.343999999999999926e-03 -1.581549999999999900e-01 1.190000000000000085e-03 -1.343999999999999926e-03 1.581549999999999900e-01
-1.861999999999999940e-03 2.066000000000000128e-03 -2.365819999999999868e-01 1.858999999999999975e-03 -2.066999999999999827e-03 2.365800000000000125e-01
-2.536000000000000060e-03 2.766999999999999928e-03 -3.150720000000000187e-01 2.537999999999999892e-03 -2.769000000000000194e-03 3.150680000000000147e-01
4.952199999999999658e-02 -9.217300000000000493e-02 6.112700000000000078e-02 -4.958599999999999813e-02 9.212099999999999456e-02 -6.118500000000000327e-02
4.908300000000000163e-02 -8.889400000000000079e-02 3.839900000000000257e-02 -4.916500000000000037e-02 8.884799999999999642e-02 -3.847300000000000025e-02
4.662700000000000178e-02 -8.660400000000000043e-02 1.243299999999999961e-02 -4.668300000000000227e-02 8.657399999999999818e-02 -1.249699999999999943e-02
4.575800000000000006e-02 -8.357100000000000639e-02 -1.135399999999999951e-02 -4.581299999999999956e-02 8.353599999999999914e-02 1.128000000000000010e-02
4.465800000000000325e-02 -8.051899999999999336e-02 -3.576000000000000012e-02 -4.471800000000000080e-02 8.047200000000000186e-02 3.567100000000000132e-02
7.727000000000000361e-03 4.201300000000000173e-02 5.745800000000000213e-02 -8.101999999999999827e-03 -4.233699999999999963e-02 -5.775399999999999978e-02
8.854000000000000759e-03 4.381600000000000078e-02 1.318199999999999927e-01 -9.209000000000000172e-03 -4.413399999999999962e-02 -1.321110000000000062e-01
1.080300000000000010e-02 4.462900000000000200e-02 2.021870000000000056e-01 -1.119299999999999982e-02 -4.494499999999999884e-02 -2.024660000000000071e-01
1.239700000000000003e-02 4.583299999999999874e-02 2.737200000000000188e-01 -1.281000000000000021e-02 -4.612900000000000333e-02 -2.739820000000000033e-01
1.389699999999999963e-02 4.711499999999999716e-02 3.454249999999999821e-01 -1.433000000000000072e-02 -4.738900000000000057e-02 -3.456469999999999820e-01
-7.430499999999999605e-02 7.727499999999999647e-02 8.772999999999999549e-03 7.429299999999999793e-02 -7.727799999999999947e-02 -8.857000000000000289e-03
-7.487800000000000011e-02 7.856000000000000483e-02 -4.937799999999999828e-02 7.488000000000000211e-02 -7.857300000000000395e-02 4.927900000000000336e-02
-7.816399999999999737e-02 7.978499999999999481e-02 -1.049009999999999942e-01 7.816900000000000237e-02 -7.979500000000000481e-02 1.048010000000000053e-01
-8.067699999999999871e-02 8.128000000000000502e-02 -1.608980000000000132e-01 8.067599999999999771e-02 -8.129300000000000415e-02 1.608070000000000055e-01
-8.261200000000000487e-02 8.297200000000000408e-02 -2.173680000000000057e-01 8.261300000000000587e-02 -8.298600000000000421e-02 2.172860000000000069e-01
-8.960600000000000509e-02 -1.007180000000000020e-01 -2.181200000000000153e-02 8.960200000000000109e-02 1.006360000000000032e-01 2.185600000000000043e-02
-9.207100000000000006e-02 -9.390300000000000036e-02 -7.409000000000000308e-02 9.206399999999999306e-02 9.377800000000000025e-02 7.413400000000000545e-02
-9.402000000000000635e-02 -9.217799999999999605e-02 -1.337659999999999960e-01 9.400600000000000622e-02 9.209100000000000619e-02 1.338249999999999995e-01
-9.626700000000000534e-02 -8.791999999999999815e-02 -1.890890000000000071e-01 9.625000000000000222e-02 8.783699999999999841e-02 1.891249999999999876e-01
-9.857499999999999596e-02 -8.357000000000000539e-02 -2.443450000000000066e-01 9.855899999999999384e-02 8.348800000000000665e-02 2.443780000000000119e-01
9.048299999999999399e-02 1.514599999999999974e-02 4.612100000000000227e-02 -9.052100000000000424e-02 -1.533699999999999994e-02 -4.602799999999999947e-02
9.476800000000000501e-02 2.010800000000000087e-02 4.633799999999999725e-02 -9.476700000000000401e-02 -2.024099999999999858e-02 -4.625499999999999751e-02
9.513099999999999334e-02 1.753899999999999904e-02 4.714000000000000135e-02 -9.512800000000000422e-02 -1.767499999999999974e-02 -4.706899999999999973e-02
9.803199999999999414e-02 1.910099999999999992e-02 4.759200000000000236e-02 -9.803099999999999314e-02 -1.921300000000000091e-02 -4.752300000000000274e-02
1.008860000000000035e-01 2.018400000000000055e-02 4.794099999999999751e-02 -1.008929999999999966e-01 -2.026700000000000029e-02 -4.787399999999999989e-02
-8.973299999999999332e-02 1.425780000000000103e-01 -1.044280000000000069e-01 8.969299999999999495e-02 -1.425200000000000078e-01 1.045149999999999968e-01
-9.213100000000000456e-02 1.385099999999999942e-01 -9.378200000000000425e-02 9.209699999999999831e-02 -1.384420000000000095e-01 9.386300000000000199e-02
-9.434099999999999431e-02 1.332289999999999863e-01 -8.165600000000000636e-02 9.431599999999999706e-02 -1.331739999999999868e-01 8.172899999999999610e-02
-9.688199999999999590e-02 1.287880000000000136e-01 -7.045700000000000573e-02 9.685299999999999465e-02 -1.287459999999999993e-01 7.052300000000000235e-02
-9.946499999999999786e-02 1.242759999999999976e-01 -5.890399999999999803e-02 9.943399999999999461e-02 -1.242380000000000012e-01 5.896200000000000052e-02
2.602600000000000052e-02 -1.066389999999999977e-01 -1.442399999999999932e-02 -2.608100000000000002e-02 1.066649999999999959e-01 1.439099999999999928e-02
2.321600000000000052e-02 -1.066079999999999944e-01 -1.063899999999999915e-02 -2.324299999999999977e-02 1.066269999999999996e-01 1.060700000000000011e-02
2.114699999999999913e-02 -1.072280000000000039e-01 -6.525999999999999683e-03 -2.119499999999999856e-02 1.072789999999999994e-01 6.504000000000000233e-03
1.897000000000000075e-02 -1.078130000000000061e-01 -2.714999999999999965e-03 -1.901399999999999965e-02 1.078660000000000035e-01 2.701999999999999975e-03
1.636900000000000160e-02 -1.081710000000000033e-01 1.296000000000000060e-03 -1.641000000000000097e-02 1.082339999999999969e-01 -1.312000000000000015e-03
-3.498999999999999940e-03 3.373899999999999816e-02 -1.338499999999999933e-02 3.511999999999999931e-03 -3.372399999999999703e-02 1.337600000000000074e-02
-5.098000000000000101e-03 3.412799999999999861e-02 -3.336700000000000083e-02 5.118000000000000153e-03 -3.409299999999999831e-02 3.335599999999999676e-02
-3.291999999999999788e-03 3.483399999999999691e-02 -5.226200000000000290e-02 3.292999999999999920e-03 -3.482799999999999785e-02 5.224700000000000177e-02
-2.471000000000000106e-03 3.566899999999999932e-02 -7.093000000000000693e-02 2.464000000000000044e-03 -3.566099999999999826e-02 7.091699999999999393e-02
-2.380000000000000171e-03 3.660299999999999665e-02 -9.041699999999999737e-02 2.380000000000000171e-03 -3.659500000000000253e-02 9.040199999999999625e-02
4.229499999999999926e-02 3.557199999999999945e-02 5.831499999999999878e-02 -4.228300000000000114e-02 -3.556200000000000333e-02 -5.826100000000000029e-02
4.314899999999999985e-02 3.536399999999999960e-02 1.902000000000000045e-03 -4.314300000000000079e-02 -3.534999999999999948e-02 -1.833999999999999910e-03
4.422399999999999942e-02 3.596099999999999991e-02 -5.271499999999999797e-02 -4.421599999999999836e-02 -3.596300000000000191e-02 5.276499999999999940e-02
4.532200000000000117e-02 3.635599999999999943e-02 -1.076769999999999949e-01 -4.530800000000000105e-02 -3.635800000000000143e-02 1.076929999999999971e-01
4.641399999999999693e-02 3.645700000000000329e-02 -1.628149999999999875e-01 -4.639599999999999974e-02 -3.644599999999999923e-02 1.628209999999999935e-01
-3.000000000000000076e-06 -9.999999999999999547e-07 9.999999999999999547e-07 3.000000000000000076e-06 0.000000000000000000e+00 -3.000000000000000076e-06
-1.966999999999999998e-03 4.637999999999999762e-03 3.018999999999999982e-03 1.971999999999999795e-03 -4.615000000000000178e-03 -3.020999999999999814e-03
-2.060000000000000199e-03 4.155999999999999972e-03 6.539999999999999807e-03 2.056999999999999801e-03 -4.155999999999999972e-03 -6.538000000000000408e-03
-3.369000000000000033e-03 6.267000000000000001e-03 9.726000000000000270e-03 3.370000000000000166e-03 -6.268000000000000134e-03 -9.726000000000000270e-03
-4.691999999999999990e-03 8.153999999999999790e-03 1.294999999999999971e-02 4.695000000000000388e-03 -8.160000000000000586e-03 -1.294900000000000044e-02
5.089199999999999974e-02 1.385599999999999887e-01 1.252600000000000068e-02 -5.097299999999999748e-02 -1.385480000000000045e-01 -1.254199999999999933e-02
5.655000000000000304e-02 1.400099999999999956e-01 -5.259999999999999919e-04 -5.666500000000000009e-02 -1.399839999999999973e-01 5.079999999999999880e-04
5.728799999999999865e-02 1.417619999999999991e-01 -1.690200000000000036e-02 -5.737899999999999945e-02 -1.417349999999999999e-01 1.688500000000000070e-02
6.086600000000000343e-02 1.437049999999999994e-01 -3.123400000000000135e-02 -6.095300000000000024e-02 -1.436729999999999952e-01 3.122000000000000122e-02
6.402900000000000258e-02 1.457900000000000029e-01 -4.591300000000000242e-02 -6.410499999999999532e-02 -1.457569999999999977e-01 4.590400000000000036e-02
-3.239500000000000018e-02 -1.241699999999999922e-02 2.581100000000000061e-02 3.239299999999999818e-02 1.239499999999999977e-02 -2.579899999999999902e-02
-3.510599999999999832e-02 -1.013799999999999944e-02 3.469300000000000161e-02 3.509299999999999919e-02 1.013499999999999991e-02 -3.469300000000000161e-02
-3.669499999999999845e-02 -8.498999999999999611e-03 4.420999999999999930e-02 3.668699999999999739e-02 8.512000000000000469e-03 -4.420700000000000324e-02
-3.921899999999999692e-02 -6.372000000000000060e-03 5.300099999999999950e-02 3.921199999999999686e-02 6.405000000000000103e-03 -5.299600000000000144e-02
-4.194300000000000112e-02 -4.101999999999999744e-03 6.212100000000000261e-02 4.193399999999999905e-02 4.155999999999999972e-03 -6.211900000000000061e-02
-3.255500000000000060e-02 -2.595799999999999844e-02 -3.873100000000000154e-02 3.259299999999999697e-02 2.588599999999999929e-02 3.866300000000000292e-02
-3.432500000000000134e-02 -2.575399999999999912e-02 -2.774799999999999836e-02 3.432999999999999940e-02 2.569199999999999956e-02 2.765899999999999956e-02
-3.240900000000000031e-02 -2.409999999999999989e-02 -1.424399999999999972e-02 3.241999999999999743e-02 2.405099999999999946e-02 1.415899999999999971e-02
-3.258599999999999691e-02 -2.317299999999999915e-02 -2.517999999999999839e-03 3.258199999999999985e-02 2.313199999999999978e-02 2.426000000000000205e-03
-3.234000000000000069e-02 -2.206500000000000128e-02 9.735000000000000597e-03 3.231200000000000044e-02 2.203799999999999856e-02 -9.839000000000000523e-03
-4.609200000000000103e-02 3.256799999999999973e-02 1.386899999999999938e-02 4.625900000000000151e-02 -3.234399999999999775e-02 -1.393699999999999974e-02
-4.971300000000000024e-02 3.519100000000000006e-02 3.507799999999999807e-02 4.987699999999999773e-02 -3.492399999999999671e-02 -3.515599999999999975e-02
-4.927600000000000036e-02 3.449499999999999789e-02 6.104199999999999904e-02 4.943199999999999678e-02 -3.422200000000000242e-02 -6.113199999999999884e-02
-5.111999999999999877e-02 3.556499999999999939e-02 8.422200000000000519e-02 5.128100000000000019e-02 -3.530300000000000105e-02 -8.429499999999999493e-02
-5.318300000000000111e-02 3.676700000000000107e-02 1.075509999999999938e-01 5.335199999999999665e-02 -3.651800000000000185e-02 -1.076079999999999953e-01
-9.336700000000000554e-02 -2.288400000000000156e-02 -2.500799999999999898e-02 9.335400000000000642e-02 2.280899999999999941e-02 2.499600000000000086e-02
-9.151099999999999512e-02 -2.113299999999999901e-02 1.901299999999999865e-02 9.145999999999999963e-02 2.104699999999999974e-02 -1.901800000000000018e-02
-9.298599999999999921e-02 -2.210200000000000012e-02 6.806099999999999650e-02 9.294099999999999584e-02 2.202000000000000138e-02 -6.806399999999999950e-02
-9.248199999999999477e-02 -2.149099999999999969e-02 1.139850000000000030e-01 9.243700000000000527e-02 2.140600000000000142e-02 -1.139949999999999991e-01
-9.180499999999999772e-02 -2.088800000000000032e-02 1.601049999999999973e-01 9.176399999999999835e-02 2.080200000000000105e-02 -1.601170000000000093e-01
-4.754099999999999993e-02 -3.548699999999999771e-02 1.909299999999999886e-02 4.758400000000000130e-02 3.542399999999999716e-02 -1.952200000000000116e-02
-4.772599999999999759e-02 -3.734599999999999725e-02 -2.494999999999999822e-03 4.778299999999999909e-02 3.730499999999999788e-02 2.026000000000000023e-03
-4.579699999999999743e-02 -3.683499999999999969e-02 -2.781099999999999892e-02 4.583500000000000074e-02 3.676499999999999907e-02 2.735299999999999884e-02
-4.492700000000000166e-02 -3.783199999999999757e-02 -5.059199999999999808e-02 4.495199999999999890e-02 3.773900000000000171e-02 5.017100000000000032e-02
-4.383700000000000097e-02 -3.869999999999999829e-02 -7.388000000000000123e-02 4.385700000000000015e-02 3.858600000000000224e-02 7.352100000000000302e-02
9.225700000000000567e-02 5.377099999999999935e-02 -4.401999999999999663e-02 -9.224300000000000554e-02 -5.379899999999999960e-02 4.392900000000000277e-02
8.998399999999999455e-02 5.392899999999999777e-02 -2.331000000000000173e-03 -8.996600000000000430e-02 -5.393499999999999683e-02 2.252999999999999794e-03
8.732900000000000384e-02 5.350400000000000295e-02 3.767199999999999716e-02 -8.732299999999999784e-02 -5.350099999999999995e-02 -3.773900000000000171e-02
8.507599999999999885e-02 5.336400000000000171e-02 7.812299999999999800e-02 -8.508400000000000685e-02 -5.337000000000000077e-02 -7.819099999999999662e-02
8.291700000000000459e-02 5.319900000000000323e-02 1.187969999999999998e-01 -8.293799999999999784e-02 -5.322099999999999748e-02 -1.188739999999999936e-01
-3.629299999999999887e-02 1.074750000000000011e-01 1.473799999999999936e-02 3.637900000000000161e-02 -1.073100000000000026e-01 -1.477999999999999974e-02
-4.169400000000000189e-02 1.075519999999999948e-01 -1.169000000000000074e-02 4.172100000000000114e-02 -1.074139999999999956e-01 1.168300000000000068e-02
-4.328499999999999709e-02 1.082489999999999980e-01 -4.282899999999999902e-02 4.333900000000000252e-02 -1.081099999999999978e-01 4.279899999999999677e-02
-4.693200000000000149e-02 1.088340000000000002e-01 -7.111099999999999366e-02 4.697500000000000286e-02 -1.087140000000000051e-01 7.107800000000000229e-02
-5.068600000000000189e-02 1.094920000000000060e-01 -9.963299999999999934e-02 5.070899999999999713e-02 -1.093810000000000060e-01 9.960700000000000109e-02
4.153899999999999954e-02 -3.628999999999999847e-03 -2.486199999999999868e-02 -4.148000000000000298e-02 3.403000000000000209e-03 2.496800000000000061e-02
4.382400000000000184e-02 -5.165999999999999585e-03 2.137299999999999964e-02 -4.376499999999999835e-02 4.949000000000000274e-03 -2.128800000000000137e-02
4.582599999999999868e-02 -2.799999999999999972e-03 6.251700000000000312e-02 -4.578399999999999831e-02 2.601000000000000013e-03 -6.239999999999999714e-02
4.793900000000000244e-02 -2.004999999999999838e-03 1.055109999999999937e-01 -4.790799999999999920e-02 1.833999999999999910e-03 -1.053810000000000024e-01
5.005799999999999833e-02 -1.905000000000000009e-03 1.491159999999999985e-01 -5.003699999999999815e-02 1.745000000000000023e-03 -1.489570000000000061e-01
-9.999999999999999547e-07 9.999999999999999547e-07 -1.999999999999999909e-06 0.000000000000000000e+00 3.999999999999999819e-06 5.000000000000000409e-06
2.779999999999999811e-04 1.259999999999999998e-04 -4.293299999999999894e-02 -2.759999999999999867e-04 -1.259999999999999998e-04 4.293600000000000194e-02
9.060000000000000128e-04 4.020000000000000136e-04 -8.439199999999999480e-02 -9.060000000000000128e-04 -4.020000000000000136e-04 8.439199999999999480e-02
1.461999999999999975e-03 6.509999999999999945e-04 -1.261889999999999956e-01 -1.461999999999999975e-03 -6.499999999999999702e-04 1.261899999999999966e-01
1.920999999999999965e-03 8.610000000000000032e-04 -1.680800000000000072e-01 -1.920999999999999965e-03 -8.599999999999999789e-04 1.680790000000000062e-01
-2.852299999999999974e-02 1.054199999999999929e-02 4.579500000000000237e-02 2.845999999999999919e-02 -1.059099999999999972e-02 -4.574000000000000288e-02
-2.795399999999999968e-02 8.892000000000000598e-03 1.555400000000000012e-02 2.788799999999999960e-02 -8.913000000000000783e-03 -1.549999999999999989e-02
-2.759400000000000047e-02 6.962999999999999572e-03 -1.348500000000000046e-02 2.753099999999999992e-02 -6.986000000000000022e-03 1.353399999999999916e-02
-2.724400000000000086e-02 4.917999999999999629e-03 -4.259500000000000092e-02 2.718599999999999836e-02 -4.935000000000000150e-03 4.262799999999999923e-02
-2.679000000000000131e-02 3.139999999999999996e-03 -7.206100000000000005e-02 2.675299999999999900e-02 -3.141999999999999828e-03 7.206700000000000605e-02
-6.335999999999999618e-03 -7.672800000000000453e-02 7.831299999999999373e-02 6.388999999999999714e-03 7.666900000000000104e-02 -7.850500000000000533e-02
-4.925999999999999823e-03 -7.467000000000000026e-02 1.077110000000000012e-01 4.994000000000000175e-03 7.459000000000000352e-02 -1.079050000000000009e-01
-3.804999999999999789e-03 -7.205599999999999505e-02 1.366979999999999862e-01 3.861999999999999982e-03 7.195799999999999419e-02 -1.368900000000000117e-01
-2.782000000000000185e-03 -6.965100000000000458e-02 1.654760000000000120e-01 2.840000000000000076e-03 6.953900000000000359e-02 -1.656509999999999927e-01
-1.783999999999999996e-03 -6.737799999999999345e-02 1.943860000000000032e-01 1.838999999999999923e-03 6.726300000000000334e-02 -1.945630000000000137e-01
-2.236499999999999946e-02 -1.322699999999999917e-02 2.550399999999999889e-02 2.235799999999999940e-02 1.337400000000000047e-02 -2.544099999999999834e-02
-2.453599999999999878e-02 -1.307000000000000002e-02 5.669300000000000034e-02 2.452400000000000066e-02 1.318399999999999954e-02 -5.663200000000000178e-02
-2.662799999999999889e-02 -1.293099999999999979e-02 8.829599999999999949e-02 2.664499999999999855e-02 1.303400000000000045e-02 -8.824300000000000199e-02
-2.866700000000000151e-02 -1.269799999999999922e-02 1.193860000000000060e-01 2.870299999999999935e-02 1.277799999999999943e-02 -1.193219999999999975e-01
-3.063300000000000051e-02 -1.239900000000000030e-02 1.504060000000000119e-01 3.067399999999999988e-02 1.244900000000000000e-02 -1.503440000000000054e-01
4.801600000000000312e-02 -7.458299999999999652e-02 2.827700000000000005e-02 -4.794000000000000344e-02 7.461299999999999877e-02 -2.789099999999999913e-02
4.789100000000000301e-02 -7.030599999999999350e-02 6.638700000000000156e-02 -4.781900000000000039e-02 7.031900000000000650e-02 -6.606900000000000273e-02
4.769799999999999734e-02 -6.557899999999999840e-02 1.037010000000000015e-01 -4.761399999999999660e-02 6.557499999999999440e-02 -1.034240000000000020e-01
4.757600000000000023e-02 -6.105599999999999916e-02 1.410569999999999879e-01 -4.749500000000000249e-02 6.103100000000000191e-02 -1.408480000000000010e-01
4.749799999999999855e-02 -5.671000000000000346e-02 1.785069999999999990e-01 -4.741399999999999781e-02 5.667699999999999821e-02 -1.783579999999999888e-01
-2.537299999999999972e-02 2.130800000000000055e-02 3.728900000000000270e-02 2.526700000000000126e-02 -2.136499999999999858e-02 -3.726399999999999851e-02
-2.773400000000000171e-02 2.501000000000000098e-02 4.053799999999999765e-02 2.759999999999999953e-02 -2.509499999999999925e-02 -4.049799999999999928e-02
-2.876300000000000037e-02 2.396699999999999872e-02 4.436099999999999766e-02 2.864200000000000079e-02 -2.408100000000000171e-02 -4.428399999999999698e-02
-3.057500000000000148e-02 2.544000000000000081e-02 4.773100000000000259e-02 3.044399999999999884e-02 -2.554899999999999879e-02 -4.763599999999999779e-02
-3.242899999999999949e-02 2.664499999999999855e-02 5.127700000000000313e-02 3.229900000000000132e-02 -2.672599999999999976e-02 -5.116899999999999921e-02
-3.930100000000000260e-02 -9.438100000000000656e-02 9.943999999999999714e-03 3.933999999999999997e-02 9.439300000000000468e-02 -1.012200000000000079e-02
-3.816699999999999954e-02 -1.006139999999999951e-01 1.417299999999999983e-02 3.820500000000000285e-02 1.006299999999999972e-01 -1.434400000000000085e-02
-3.923299999999999704e-02 -1.020609999999999989e-01 1.994800000000000045e-02 3.924400000000000110e-02 1.020589999999999969e-01 -2.012100000000000000e-02
-3.932700000000000085e-02 -1.062970000000000026e-01 2.475499999999999923e-02 3.931500000000000272e-02 1.062639999999999973e-01 -2.493499999999999883e-02
-3.957600000000000007e-02 -1.105880000000000057e-01 2.978099999999999845e-02 3.953199999999999770e-02 1.105410000000000004e-01 -2.995400000000000146e-02
-3.810899999999999704e-02 -6.076899999999999663e-02 -6.635000000000000273e-03 3.803999999999999743e-02 6.086300000000000043e-02 6.670999999999999847e-03
-3.563199999999999701e-02 -5.920299999999999868e-02 -2.489600000000000146e-02 3.549299999999999677e-02 5.923599999999999699e-02 2.497699999999999920e-02
-3.632900000000000018e-02 -6.087200000000000250e-02 -4.245999999999999774e-02 3.620500000000000107e-02 6.092100000000000293e-02 4.249399999999999705e-02
-3.603699999999999959e-02 -6.162200000000000316e-02 -5.983900000000000330e-02 3.590299999999999742e-02 6.166399999999999659e-02 5.988399999999999973e-02
-3.496300000000000102e-02 -6.170500000000000290e-02 -7.771000000000000130e-02 3.483699999999999991e-02 6.174000000000000321e-02 7.775799999999999379e-02
4.253500000000000336e-02 3.768000000000000082e-03 -7.415900000000000269e-02 -4.254899999999999655e-02 -3.756999999999999923e-03 7.423599999999999643e-02
4.457799999999999957e-02 7.686000000000000124e-03 -6.192799999999999694e-02 -4.458199999999999663e-02 -7.609999999999999577e-03 6.198200000000000237e-02
4.656899999999999928e-02 4.585999999999999799e-03 -4.518799999999999900e-02 -4.655800000000000216e-02 -4.493999999999999731e-03 4.522600000000000231e-02
4.855299999999999894e-02 4.900999999999999975e-03 -3.104900000000000021e-02 -4.853299999999999975e-02 -4.789999999999999987e-03 3.107800000000000146e-02
5.054299999999999765e-02 5.206999999999999823e-03 -1.658199999999999952e-02 -5.051699999999999940e-02 -5.067000000000000323e-03 1.660400000000000070e-02
5.448499999999999871e-02 -2.209500000000000006e-02 4.909999999999999781e-02 -5.455200000000000327e-02 2.198900000000000160e-02 -4.900899999999999701e-02
5.755699999999999705e-02 -1.818499999999999978e-02 8.424299999999999844e-02 -5.763800000000000173e-02 1.810300000000000104e-02 -8.414000000000000645e-02
6.054799999999999766e-02 -1.401999999999999948e-02 1.174790000000000001e-01 -6.062900000000000234e-02 1.395599999999999966e-02 -1.173830000000000012e-01
6.360399999999999388e-02 -1.002800000000000046e-02 1.512449999999999906e-01 -6.368699999999999362e-02 9.993000000000000146e-03 -1.511659999999999948e-01
6.665699999999999403e-02 -6.252999999999999878e-03 1.850700000000000123e-01 -6.673999999999999377e-02 6.249000000000000214e-03 -1.850110000000000088e-01
