3.711259051764586037e+00 3.710706508605640625e-05 3.114826631311304468e-06 3.710706508605640625e-05 3.711296835965896435e+00 -2.031408672594328559e-06 3.114826631311304468e-06 -2.031408672594328559e-06 3.287104035753522169e+00
3.703984171026291516e+00 3.940120261363960069e-03 1.419277525919237831e-04 3.940120261363960069e-03 3.713131739706228451e+00 -1.423340343264426313e-04 1.419277525919237831e-04 -1.423340343264426313e-04 3.288635176183678510e+00
3.698106493173007436e+00 7.853290501004835458e-03 3.846133753445263054e-04 7.853290501004835458e-03 3.716249410309681700e+00 -4.561189606198466748e-04 3.846133753445263054e-04 -4.561189606198466748e-04 3.288933522404060117e+00
3.696039331707774878e+00 1.184365427020429504e-02 9.664088191755421586e-04 1.184365427020429504e-02 3.723202109632503198e+00 -1.132036339614399647e-03 9.664088191755421586e-04 -1.132036339614399647e-03 3.293234149991187021e+00
3.693570222179858753e+00 1.585054016327418908e-02 1.727374507929377648e-03 1.585054016327418908e-02 3.729735797059790414e+00 -2.023283037903951531e-03 1.727374507929377648e-03 -2.023283037903951531e-03 3.297796693869833984e+00
3.755734939404133499e+00 -2.437616643874442879e-01 -1.844057641316055110e-02 -2.437616643874442879e-01 2.679807775381951362e+00 -1.390163091073707280e-01 -1.844057641316055110e-02 -1.390163091073707280e-01 1.514104588426040898e+00
3.740043628263034048e+00 -2.556249057252210632e-01 -1.817632273664959372e-02 -2.556249057252210632e-01 2.677667376117690790e+00 -1.392754276021427595e-01 -1.817632273664959372e-02 -1.392754276021427595e-01 1.506631649897650194e+00
3.735814875495380605e+00 -2.682399654273149858e-01 -1.788694830622662019e-02 -2.682399654273149858e-01 2.687733720212932109e+00 -1.394219884647454610e-01 -1.788694830622662019e-02 -1.394219884647454610e-01 1.508491695996704740e+00
3.729099584456525118e+00 -2.807913211181071733e-01 -1.803475826709015351e-02 -2.807913211181071733e-01 2.695775692393473477e+00 -1.398867918064656268e-01 -1.803475826709015351e-02 -1.398867918064656268e-01 1.507476595476746173e+00
3.722110324532462045e+00 -2.935092232436751214e-01 -1.837562330359798421e-02 -2.935092232436751214e-01 2.703967695154008588e+00 -1.404617933725291201e-01 -1.837562330359798421e-02 -1.404617933725291201e-01 1.505891906149854353e+00
3.336517910357606365e+00 -5.310841720093429502e-02 7.422241782734849413e-02 -5.310841720093429502e-02 3.712835014749345408e+00 8.077649140630673019e-02 7.422241782734849413e-02 8.077649140630673019e-02 2.524987450754778262e+00
3.338730595798823142e+00 -5.698790024286080891e-02 7.454795354782181582e-02 -5.698790024286080891e-02 3.704389961617637006e+00 8.019230524574302854e-02 7.454795354782181582e-02 8.019230524574302854e-02 2.526701847696128045e+00
3.343286864868019848e+00 -6.077109036579016188e-02 7.506963137886606130e-02 -6.077109036579016188e-02 3.698544133400280209e+00 7.949199310758191250e-02 7.506963137886606130e-02 7.949199310758191250e-02 2.528762707654267139e+00
3.351054037734741531e+00 -6.453567844754960758e-02 7.598564512676936333e-02 -6.453567844754960758e-02 3.696108770583882208e+00 7.849062881784021894e-02 7.598564512676936333e-02 7.849062881784021894e-02 2.534310492873762310e+00
3.358249061055774476e+00 -6.829493212044415729e-02 7.717480796449842362e-02 -6.829493212044415729e-02 3.693275378798333453e+00 7.735029633818216177e-02 7.717480796449842362e-02 7.735029633818216177e-02 2.540096274796460385e+00
2.768098764460464878e+00 4.048148392006823415e-01 -1.891435383873349696e-01 4.048148392006823415e-01 3.558331359134252025e+00 4.276714962297971379e-02 -1.891435383873349696e-01 4.276714962297971379e-02 3.311702677345729207e+00
2.763647583284806863e+00 4.198344368051786790e-01 -1.895726073601173567e-01 4.198344368051786790e-01 3.550800953011746586e+00 4.425346965560465057e-02 -1.895726073601173567e-01 4.425346965560465057e-02 3.306346138801928625e+00
2.766537794069026113e+00 4.350119328834375354e-01 -1.895866640090348443e-01 4.350119328834375354e-01 3.550870963311694162e+00 4.588035617740447714e-02 -1.895866640090348443e-01 4.588035617740447714e-02 3.307031229846256526e+00
2.768888939190875309e+00 4.501145056582429582e-01 -1.887799761279544963e-01 4.501145056582429582e-01 3.550926098128807773e+00 4.739547186946232310e-02 -1.887799761279544963e-01 4.739547186946232310e-02 3.307002161242184712e+00
2.771190135443756031e+00 4.651751814309351696e-01 -1.873775865718757261e-01 4.651751814309351696e-01 3.551270144846487398e+00 4.889052613054084562e-02 -1.873775865718757261e-01 4.889052613054084562e-02 3.307004890688576282e+00
2.917400942008408382e+00 4.154758852693876681e-01 5.036197905781353984e-02 4.154758852693876681e-01 1.805128076458762054e+00 -8.487028199624116476e-02 5.036197905781353984e-02 -8.487028199624116476e-02 2.477651125258044207e+00
2.900200253361973957e+00 4.168984975692724970e-01 5.019713535424497053e-02 4.168984975692724970e-01 1.810886328769482079e+00 -8.662731539069667974e-02 5.019713535424497053e-02 -8.662731539069667974e-02 2.475020726532097370e+00
2.889575491917355521e+00 4.183649660909682377e-01 5.003201319847443151e-02 4.183649660909682377e-01 1.824524360717761695e+00 -8.918740493564503158e-02 5.003201319847443151e-02 -8.918740493564503158e-02 2.478272630572849966e+00
2.879761026380481148e+00 4.199167802125689519e-01 5.009438649171658181e-02 4.199167802125689519e-01 1.837713945394761961e+00 -9.234505290602944283e-02 5.009438649171658181e-02 -9.234505290602944283e-02 2.481469540303712584e+00
2.870472557053135532e+00 4.215156527563032607e-01 5.027830417112037070e-02 4.215156527563032607e-01 1.850899631740934526e+00 -9.622430975782929330e-02 5.027830417112037070e-02 -9.622430975782929330e-02 2.484697636681196808e+00
3.194967961756572716e+00 -4.733954154012780524e-01 7.478397730769837564e-04 -4.733954154012780524e-01 3.319259567091432661e+00 7.856334995450574288e-02 7.478397730769837564e-04 7.856334995450574288e-02 1.983709400385783583e+00
3.178650641841705760e+00 -4.826246168983691631e-01 9.601671814196828221e-04 -4.826246168983691631e-01 3.328155505673219050e+00 7.858737139082018486e-02 9.601671814196828221e-04 7.858737139082018486e-02 1.981435785244044068e+00
3.164108423237937728e+00 -4.923074646008010480e-01 1.368255490302009575e-03 -4.923074646008010480e-01 3.343176910515190503e+00 7.814960142212402927e-02 1.368255490302009575e-03 7.814960142212402927e-02 1.978997057241200119e+00
3.150399085813969435e+00 -5.020960618447092294e-01 1.727058438470198583e-03 -5.020960618447092294e-01 3.356381659722323718e+00 7.786935133178873869e-02 1.727058438470198583e-03 7.786935133178873869e-02 1.975925074477584031e+00
3.136910497106476736e+00 -5.121366080614556671e-01 2.104498707916842987e-03 -5.121366080614556671e-01 3.369556175052716096e+00 7.755375935814022570e-02 2.104498707916842987e-03 7.755375935814022570e-02 1.972083853534978282e+00
2.615442190415414370e+00 5.387845275761180552e-01 -6.790711453801675547e-03 5.387845275761180552e-01 4.113895238059105175e+00 1.604416391820392323e-03 -6.790711453801675547e-03 1.604416391820392323e-03 1.339944060839900697e+00
2.593508784798190359e+00 5.426516358270468965e-01 -6.199026550116939691e-03 5.426516358270468965e-01 4.114864824411239574e+00 1.037148028123584080e-03 -6.199026550116939691e-03 1.037148028123584080e-03 1.323387981963995319e+00
2.585116986480748391e+00 5.466805036553958885e-01 -5.613723242110866228e-03 5.466805036553958885e-01 4.131244022102573688e+00 5.391061045061862822e-04 -5.613723242110866228e-03 5.391061045061862822e-04 1.321394010775094774e+00
2.573980685830458803e+00 5.508721021735508705e-01 -5.111241947586572451e-03 5.508721021735508705e-01 4.143194808583937849e+00 1.487189253810168989e-04 -5.111241947586572451e-03 1.487189253810168989e-04 1.315681234069624006e+00
2.562078038777366729e+00 5.551784306835807481e-01 -4.642888316909041940e-03 5.551784306835807481e-01 4.153758014196214710e+00 -1.478865433359738825e-04 -4.642888316909041940e-03 -1.478865433359738825e-04 1.308684785520355609e+00
4.821207120956911396e+00 -1.391537112670934440e-01 1.866798114214468507e-02 -1.391537112670934440e-01 3.607583569871712026e+00 9.717568572163101659e-02 1.866798114214468507e-02 9.717568572163101659e-02 1.813583828977785473e+00
4.822656520830147286e+00 -1.501152070892727008e-01 1.861163681348823248e-02 -1.501152070892727008e-01 3.590796370605736421e+00 9.746341015053286427e-02 1.861163681348823248e-02 9.746341015053286427e-02 1.807479678137408508e+00
4.834008334144543895e+00 -1.614155874450660944e-01 1.855010826088760237e-02 -1.614155874450660944e-01 3.583551281216802664e+00 9.776996149796882141e-02 1.855010826088760237e-02 9.776996149796882141e-02 1.806637787454263178e+00
4.843620703898724678e+00 -1.720221003540151061e-01 1.850317739149820798e-02 -1.720221003540151061e-01 3.575299633821023448e+00 9.799329240840613797e-02 1.850317739149820798e-02 9.799329240840613797e-02 1.804225349769924103e+00
4.852634022933459690e+00 -1.823051449742366381e-01 1.846961636280695582e-02 -1.823051449742366381e-01 3.566916880130234446e+00 9.816641820275247288e-02 1.846961636280695582e-02 9.816641820275247288e-02 1.801144965758461725e+00
4.216419526807636764e+00 2.520313286250750948e-02 2.406458627440658665e-02 2.520313286250750948e-02 4.493548269999454448e+00 -6.131783607945213987e-02 2.406458627440658665e-02 -6.131783607945213987e-02 1.901725468566923150e+00
4.206633713440526279e+00 9.450290436152714718e-03 2.312822422620981755e-02 9.450290436152714718e-03 4.485904442642916656e+00 -6.119878394458259929e-02 2.312822422620981755e-02 -6.119878394458259929e-02 1.892448381979557670e+00
4.209270684212990332e+00 -6.581474134753574970e-03 2.215077218403522022e-02 -6.581474134753574970e-03 4.490885311846692929e+00 -6.097047596479850118e-02 2.215077218403522022e-02 -6.097047596479850118e-02 1.895912731074470114e+00
4.208284932536271228e+00 -2.259623125782135936e-02 2.079548268068037720e-02 -2.259623125782135936e-02 4.493320914436750080e+00 -6.080448327389469110e-02 2.079548268068037720e-02 -6.080448327389469110e-02 1.896034640460576570e+00
4.206787732888151332e+00 -3.874895279775510126e-02 1.923338261160930859e-02 -3.874895279775510126e-02 4.495687126639626108e+00 -6.062923853136672342e-02 1.923338261160930859e-02 -6.062923853136672342e-02 1.895542512949921488e+00
1.211706215226470817e+00 -2.817569398485552101e-01 1.911070228920398739e-02 -2.817569398485552101e-01 1.648517047902863464e+00 5.228407492363287834e-02 1.911070228920398739e-02 5.228407492363287834e-02 1.418299873368173980e+00
1.201380649928636135e+00 -2.844692811379153641e-01 1.994293034952070859e-02 -2.844692811379153641e-01 1.657116785434388673e+00 5.259064770249761989e-02 1.994293034952070859e-02 5.259064770249761989e-02 1.420109766016583341e+00
1.191192671296921635e+00 -2.871696335476550677e-01 2.075917323701021930e-02 -2.871696335476550677e-01 1.665853538733004235e+00 5.244920746792827715e-02 2.075917323701021930e-02 5.244920746792827715e-02 1.418982668607507547e+00
1.182580088537231511e+00 -2.899854502861199390e-01 2.133649488063586036e-02 -2.899854502861199390e-01 1.675756067849947240e+00 5.173715365333041855e-02 2.133649488063586036e-02 5.173715365333041855e-02 1.419083860460494284e+00
1.174037298183903344e+00 -2.928567869552078373e-01 2.179549770038866074e-02 -2.928567869552078373e-01 1.685551981573123026e+00 5.056880878937008994e-02 2.179549770038866074e-02 5.056880878937008994e-02 1.419350613032048347e+00
1.199709882124134867e-02 1.958685785461970904e-05 5.045099750432349683e-06 1.958685785461970904e-05 1.202707264917038908e-02 -8.754731919867901792e-06 5.045099750432349683e-06 -8.754731919867901792e-06 4.210877668169682800e-03
-6.238117456122822292e-03 5.192297954915552245e-03 -3.027059850259409979e-05 5.192297954915552245e-03 1.606745562283281095e-02 2.418680174471979314e-05 -3.027059850259409979e-05 2.418680174471979314e-05 -1.558045511162931462e-04
-1.714829405171955368e-02 1.073612065420681723e-02 -3.858017456212973177e-05 1.073612065420681723e-02 3.022400552254598388e-02 9.185049251522425210e-05 -3.858017456212973177e-05 9.185049251522425210e-05 4.499041895091436148e-04
-2.816604998022992010e-02 1.652774678241637762e-02 -9.021825436067260290e-05 1.652774678241637762e-02 4.195935269791196270e-02 2.207973067248040100e-04 -9.021825436067260290e-05 2.207973067248040100e-04 -4.240851496098722233e-04
-3.890973828406238400e-02 2.257652461261120888e-02 -1.595141832857286941e-04 2.257652461261120888e-02 5.348992817752509787e-02 4.006402742990394956e-04 -1.595141832857286941e-04 4.006402742990394956e-04 -2.202927967497607994e-03
-8.166361481548626289e-01 -3.392092361100839670e-01 -3.800448098220934098e-03 -3.392092361100839670e-01 6.909892427579944485e-01 -2.697153066349513434e-02 -3.800448098220934098e-03 -2.697153066349513434e-02 -6.915747795246444118e-01
-8.306158010202192576e-01 -3.523667414437504641e-01 -3.758666830217007471e-03 -3.523667414437504641e-01 6.784860111157584583e-01 -2.679601938714889012e-02 -3.758666830217007471e-03 -2.679601938714889012e-02 -7.012798642398072602e-01
-8.260529570961632206e-01 -3.666468001285189127e-01 -3.993480551472048355e-03 -3.666468001285189127e-01 6.830514008518433489e-01 -2.596982850694222120e-02 -3.993480551472048355e-03 -2.596982850694222120e-02 -6.984186710266064857e-01
-8.262886693393108883e-01 -3.803197575212159953e-01 -4.464306023172206692e-03 -3.803197575212159953e-01 6.833518066712551686e-01 -2.534820111094115286e-02 -4.464306023172206692e-03 -2.534820111094115286e-02 -7.004533738523031072e-01
-8.261276841668941939e-01 -3.940084390470328102e-01 -5.264589522143467426e-03 -3.940084390470328102e-01 6.843618950321386230e-01 -2.466772053097756462e-02 -5.264589522143467426e-03 -2.466772053097756462e-02 -7.027829416124072859e-01
-1.990112237405862627e+00 3.590407361067148861e-01 1.624468354112713897e-01 3.590407361067148861e-01 -2.165478992559985993e+00 -9.330790755614065679e-02 1.624468354112713897e-01 -9.330790755614065679e-02 -1.716768046643774248e+00
-1.994661642399577328e+00 3.693028347918828613e-01 1.625361011700503788e-01 3.693028347918828613e-01 -2.160930532177475438e+00 -9.284126962135952343e-02 1.625361011700503788e-01 -9.284126962135952343e-02 -1.721077048086068206e+00
-1.997507755957260489e+00 3.807192483683514705e-01 1.628375895793303663e-01 3.807192483683514705e-01 -2.153879639280340541e+00 -9.248656811425363944e-02 1.628375895793303663e-01 -9.248656811425363944e-02 -1.720490129657976652e+00
-2.002280876371124840e+00 3.919259582575297940e-01 1.628190122256514827e-01 3.919259582575297940e-01 -2.148550142867314161e+00 -9.192657110547616806e-02 1.628190122256514827e-01 -9.192657110547616806e-02 -1.722017251104459801e+00
-2.006982206333484342e+00 4.033056894322426533e-01 1.626384340504848647e-01 4.033056894322426533e-01 -2.142732125026614032e+00 -9.126801966108026576e-02 1.626384340504848647e-01 -9.126801966108026576e-02 -1.724156638046342671e+00
5.710161992424721278e-02 2.851301027066708849e-01 -1.163876736307547094e-01 2.851301027066708849e-01 -3.171558197884144503e-01 9.086302176303445721e-02 -1.163876736307547094e-01 9.086302176303445721e-02 -1.017335265799197863e+00
5.179370626133648903e-02 2.942489960147956496e-01 -1.164763395736774093e-01 2.942489960147956496e-01 -3.286289519443628127e-01 9.084706490403648971e-02 -1.164763395736774093e-01 9.084706490403648971e-02 -1.025203201576443846e+00
6.084365389567757132e-02 3.044564180721123225e-01 -1.165781021838908915e-01 3.044564180721123225e-01 -3.268586438140216321e-01 9.083517252799082342e-02 -1.165781021838908915e-01 9.083517252799082342e-02 -1.022761200004131288e+00
6.424637880879255358e-02 3.136526870927367483e-01 -1.168799276772016227e-01 3.136526870927367483e-01 -3.291579368737861944e-01 9.070525960992242842e-02 -1.168799276772016227e-01 9.070525960992242842e-02 -1.025178212533107258e+00
6.685954027431911806e-02 3.225453241831827134e-01 -1.173541173549715738e-01 3.225453241831827134e-01 -3.316437445401402284e-01 9.046364867886821926e-02 -1.173541173549715738e-01 9.046364867886821926e-02 -1.028525389512540578e+00
-4.466887450585548258e-01 3.702220181831040735e-01 1.591332465186126241e-02 3.702220181831040735e-01 5.883826407148205762e-02 1.755631954132285191e-02 1.591332465186126241e-02 1.755631954132285191e-02 -1.121756194589514033e+00
-4.617920427425912799e-01 3.794578650750490278e-01 1.580797737711900700e-02 3.794578650750490278e-01 5.500123861908613049e-02 1.774890281148204865e-02 1.580797737711900700e-02 1.774890281148204865e-02 -1.131321213983196516e+00
-4.626035789836931422e-01 3.894276715616523665e-01 1.592720996601067196e-02 3.894276715616523665e-01 6.698305731140441477e-02 1.780082181221461987e-02 1.592720996601067196e-02 1.780082181221461987e-02 -1.127684167240017521e+00
-4.683151218462593413e-01 3.993579350883954548e-01 1.547427705555005743e-02 3.993579350883954548e-01 7.334645530235421595e-02 1.821119321626073900e-02 1.547427705555005743e-02 1.821119321626073900e-02 -1.129783113586494192e+00
-4.735209072336659664e-01 4.094717262456350482e-01 1.474620362667235229e-02 4.094717262456350482e-01 8.024911663521530625e-02 1.884463521066367248e-02 1.474620362667235229e-02 1.884463521066367248e-02 -1.131706078668859528e+00
5.532084659926131964e-01 5.349843760767650780e-01 -1.035191839147768522e-01 5.349843760767650780e-01 3.156937744753093855e-01 -1.151397246622955922e-01 -1.035191839147768522e-01 -1.151397246622955922e-01 1.431030415034916237e+00
5.534318430896396634e-01 5.226958797891120279e-01 -1.024389960955845447e-01 5.226958797891120279e-01 3.365911370523249624e-01 -1.139941192646884011e-01 -1.024389960955845447e-01 -1.139941192646884011e-01 1.427704997290482059e+00
5.455386538111399730e-01 5.116920919094871678e-01 -1.021262681597474714e-01 5.116920919094871678e-01 3.492838878655707968e-01 -1.131552947503350892e-01 -1.021262681597474714e-01 -1.131552947503350892e-01 1.431967148341797280e+00
5.358050693332429004e-01 5.007878083730832319e-01 -1.011628456412735633e-01 5.007878083730832319e-01 3.595184752610843804e-01 -1.119331029194616661e-01 -1.011628456412735633e-01 -1.119331029194616661e-01 1.434127088829993069e+00
5.269786279493741121e-01 4.897294816697687070e-01 -9.991759085038247334e-02 4.897294816697687070e-01 3.706198818331110645e-01 -1.104134134093666397e-01 -9.991759085038247334e-02 -1.104134134093666397e-01 1.436951068506622020e+00
6.036784192335380439e-01 3.074001725019022691e-01 -7.655835527424477080e-03 3.074001725019022691e-01 1.191717725707258091e-01 -3.209609030214633646e-02 -7.655835527424477080e-03 -3.209609030214633646e-02 -2.191819937695083653e-01
6.034994650948692918e-01 3.140043196986879726e-01 -8.486863052366002899e-03 3.140043196986879726e-01 9.923036568374131450e-02 -3.218408841165695811e-02 -8.486863052366002899e-03 -3.218408841165695811e-02 -2.301646015243816179e-01
6.193521396532306600e-01 3.215020544209580833e-01 -9.003463718787208317e-03 3.215020544209580833e-01 9.401821547302958992e-02 -3.238848065929340880e-02 -9.003463718787208317e-03 -3.238848065929340880e-02 -2.272137808841194206e-01
6.300256448049489366e-01 3.280247109314575193e-01 -9.454990152965260172e-03 3.280247109314575193e-01 8.422868460794157019e-02 -3.216737616564905450e-02 -9.454990152965260172e-03 -3.216737616564905450e-02 -2.292080103104073008e-01
6.406333362445122415e-01 3.341867970369368779e-01 -9.725639800703825624e-03 3.341867970369368779e-01 7.440898296244992383e-02 -3.171289181182358752e-02 -9.725639800703825624e-03 -3.171289181182358752e-02 -2.315746418203048218e-01
1.983445166722519026e+00 -5.722373471774591103e-01 2.501590442530716996e-02 -5.722373471774591103e-01 2.476223272531017372e+00 7.086433111329236423e-02 2.501590442530716996e-02 7.086433111329236423e-02 1.165001043082733778e+00
1.988032963697355715e+00 -5.618907737435748784e-01 2.457007278682322299e-02 -5.618907737435748784e-01 2.463552409423197975e+00 7.064169800276218214e-02 2.457007278682322299e-02 7.064169800276218214e-02 1.165538755052547559e+00
1.995608850401397349e+00 -5.515365671744725251e-01 2.378894861616302758e-02 -5.515365671744725251e-01 2.453871756359922163e+00 7.024519903448460389e-02 2.378894861616302758e-02 7.024519903448460389e-02 1.167092663486870352e+00
2.005262504782697963e+00 -5.415879062524249221e-01 2.253287380970509651e-02 -5.415879062524249221e-01 2.446639502095054652e+00 6.942887762920726957e-02 2.253287380970509651e-02 6.942887762920726957e-02 1.170903152858655760e+00
2.014220554378653105e+00 -5.318826575312235461e-01 2.087026387570124764e-02 -5.318826575312235461e-01 2.439011879696756591e+00 6.832631365324823292e-02 2.087026387570124764e-02 6.832631365324823292e-02 1.174205331966653221e+00
-8.584295393831617993e-01 2.890738952525680472e-01 1.064745636264650547e-01 2.890738952525680472e-01 4.749179117853352117e-01 3.736962754281068083e-02 1.064745636264650547e-01 3.736962754281068083e-02 -7.877990363685860586e-01
-8.692646410794018230e-01 2.994998047942671882e-01 1.068302587530894771e-01 2.994998047942671882e-01 4.617101567919794647e-01 3.745137581018866124e-02 1.068302587530894771e-01 3.745137581018866124e-02 -8.003265075266107198e-01
-8.618700294229023617e-01 3.108446309812170072e-01 1.073353247947391037e-01 3.108446309812170072e-01 4.662688248787045797e-01 3.777416124829142269e-02 1.073353247947391037e-01 3.777416124829142269e-02 -7.950800419770380767e-01
-8.600122098832075901e-01 3.215431349292096064e-01 1.084680792791053172e-01 3.215431349292096064e-01 4.661404921207251695e-01 3.799957007378217816e-02 1.084680792791053172e-01 3.799957007378217816e-02 -7.951485662599874216e-01
-8.579244733415122282e-01 3.320507927382867486e-01 1.100892195520348504e-01 3.320507927382867486e-01 4.665149713161404477e-01 3.829064800376591471e-02 1.100892195520348504e-01 3.829064800376591471e-02 -7.952091260977691700e-01
2.558170070190243894e+00 -2.513847818502820686e-01 1.024362955422617183e-01 -2.513847818502820686e-01 2.562148836905683513e+00 2.707206879774944758e-02 1.024362955422617183e-01 2.707206879774944758e-02 1.173318755122974233e+00
2.541541947575663762e+00 -2.511011066129175129e-01 1.022821517345514908e-01 -2.511011066129175129e-01 2.567472705242419995e+00 2.705589494931269837e-02 1.022821517345514908e-01 2.705589494931269837e-02 1.172268439469707824e+00
2.530229817336841602e+00 -2.508165875225911168e-01 1.021391186575065085e-01 -2.508165875225911168e-01 2.578071779728421387e+00 2.750018353376215002e-02 1.021391186575065085e-01 2.750018353376215002e-02 1.172059867145953893e+00
2.521074856553001009e+00 -2.505890285071940560e-01 1.020426381355273165e-01 -2.505890285071940560e-01 2.590210604585601484e+00 2.853854460340137303e-02 1.020426381355273165e-01 2.853854460340137303e-02 1.173859664871563124e+00
2.511522019097616631e+00 -2.503935359043498732e-01 1.020022738355155917e-01 -2.503935359043498732e-01 2.601519500054735978e+00 3.001050545330576080e-02 1.020022738355155917e-01 3.001050545330576080e-02 1.175122209544751772e+00
-2.938837316648862164e+00 1.410658100509241912e-05 1.297156874031486854e-06 1.410658100509241912e-05 -2.938830506575273560e+00 2.756458357316909565e-06 1.297156874031486854e-06 2.756458357316909565e-06 -2.592124471548826747e+00
-2.936333155303544551e+00 -1.806290947088845392e-03 -1.227434692052294389e-04 -1.806290947088845392e-03 -2.934708628463429392e+00 -6.469569909232039966e-05 -1.227434692052294389e-04 -6.469569909232039966e-05 -2.586691816415773726e+00
-2.939135824874499203e+00 -3.653280191100428519e-03 -3.272078214744425463e-04 -3.653280191100428519e-03 -2.935865043816628273e+00 -1.439844130174950374e-04 -3.272078214744425463e-04 -1.439844130174950374e-04 -2.587040589470279262e+00
-2.938883852151718212e+00 -5.510484545495009795e-03 -7.768348229356067131e-04 -5.510484545495009795e-03 -2.933949791692121334e+00 -3.416386916980428210e-04 -7.768348229356067131e-04 -3.416386916980428210e-04 -2.584211490328016225e+00
-2.938017999938302260e+00 -7.375796130352288427e-03 -1.400442990126244021e-03 -7.375796130352288427e-03 -2.931408661375893399e+00 -6.159873705557023568e-04 -1.400442990126244021e-03 -6.159873705557023568e-04 -2.580117825378182239e+00
-3.744415480233320270e+00 3.831445342073127591e-01 -1.778651422127000559e-02 3.831445342073127591e-01 -3.521759488340762800e+00 9.096964025276250976e-02 -1.778651422127000559e-02 9.096964025276250976e-02 -3.450516912385651835e+00
-3.736622107102065993e+00 3.837909952670335301e-01 -1.891307013710106719e-02 3.837909952670335301e-01 -3.522628660069845097e+00 9.119368451894732663e-02 -1.891307013710106719e-02 9.119368451894732663e-02 -3.446936871715573947e+00
-3.734536861770439753e+00 3.844364561291374049e-01 -1.998294818797466399e-02 3.844364561291374049e-01 -3.529535858112529567e+00 9.142856425931518427e-02 -1.998294818797466399e-02 9.142856425931518427e-02 -3.449129471591413587e+00
-3.730907811417133235e+00 3.850057352727543347e-01 -2.103865677260889286e-02 3.850057352727543347e-01 -3.535081287099809622e+00 9.233307630419523848e-02 -2.103865677260889286e-02 9.233307630419523848e-02 -3.450181679484388919e+00
-3.724561724237528182e+00 3.855301722232136741e-01 -2.203318660300962115e-02 3.855301722232136741e-01 -3.538196235878030560e+00 9.367600830448155613e-02 -2.203318660300962115e-02 9.367600830448155613e-02 -3.448311976739203644e+00
-1.711760787708904052e+00 8.281773738797243434e-02 7.008344412335815177e-02 8.281773738797243434e-02 -3.021631929619145840e+00 2.940316196469805465e-02 7.008344412335815177e-02 2.940316196469805465e-02 -2.537715015990781087e+00
-1.722068914229249126e+00 8.762924249138637212e-02 6.943851574970832941e-02 8.762924249138637212e-02 -3.019924182341750640e+00 3.157202982702693450e-02 6.943851574970832941e-02 3.157202982702693450e-02 -2.530382077911141447e+00
-1.727887999833005228e+00 9.246876707478757229e-02 6.885218811706042552e-02 9.246876707478757229e-02 -3.012206176551428971e+00 3.395448618251591805e-02 6.885218811706042552e-02 3.395448618251591805e-02 -2.526853384657202106e+00
-1.733868157418859690e+00 9.735648516376686767e-02 6.781866958381570221e-02 9.735648516376686767e-02 -3.005136301361040818e+00 3.682608260292551117e-02 6.781866958381570221e-02 3.682608260292551117e-02 -2.523181872110983992e+00
-1.739301694977991142e+00 1.024131206892408691e-01 6.657604567420885577e-02 1.024131206892408691e-01 -2.997787672372608014e+00 4.014663114838828289e-02 6.657604567420885577e-02 4.014663114838828289e-02 -2.519148507994645403e+00
-1.130504678867317425e+00 2.096325821011005841e-01 -6.587013850848338903e-02 2.096325821011005841e-01 -1.364100949665112639e+00 3.745525393840346690e-02 -6.587013850848338903e-02 3.745525393840346690e-02 -2.896471279127226683e+00
-1.130376939311291018e+00 2.038548479529222190e-01 -6.499234252113814114e-02 2.038548479529222190e-01 -1.360356652839135538e+00 3.793360786152701059e-02 -6.499234252113814114e-02 3.793360786152701059e-02 -2.887518484596327095e+00
-1.134613135808626216e+00 1.981930402082403841e-01 -6.423362311129748869e-02 1.981930402082403841e-01 -1.361090013348211336e+00 3.834958833929100197e-02 -6.423362311129748869e-02 3.834958833929100197e-02 -2.887217485469857348e+00
-1.137337563799494911e+00 1.924154635687624348e-01 -6.301655338328444877e-02 1.924154635687624348e-01 -1.360251909553367611e+00 3.905538482579629794e-02 -6.301655338328444877e-02 3.905538482579629794e-02 -2.885296194342342968e+00
-1.137694321005907394e+00 1.865682680837064122e-01 -6.158117659651302783e-02 1.865682680837064122e-01 -1.356974468515384613e+00 3.993727603935200848e-02 -6.158117659651302783e-02 3.993727603935200848e-02 -2.880146289873970922e+00
-2.088008597648479014e+00 -3.308516200178547306e-01 -3.978321428491939787e-02 -3.308516200178547306e-01 -3.355722653426117308e+00 2.480971556581680615e-01 -3.978321428491939787e-02 2.480971556581680615e-01 -2.202827949862268042e+00
-2.090280402093448675e+00 -3.309158043502454793e-01 -4.037435198623808702e-02 -3.309158043502454793e-01 -3.348601883129858070e+00 2.502633768763554145e-01 -4.037435198623808702e-02 2.502633768763554145e-01 -2.192178485431997004e+00
-2.095369738269541315e+00 -3.307153887723554009e-01 -4.051700166497650135e-02 -3.307153887723554009e-01 -3.343682474973769914e+00 2.527383247333422345e-01 -4.051700166497650135e-02 2.527383247333422345e-01 -2.189213329736376057e+00
-2.100260423936884724e+00 -3.304381124564274574e-01 -4.076106258889226897e-02 -3.304381124564274574e-01 -3.339066819170721345e+00 2.558052125958026335e-01 -4.076106258889226897e-02 2.558052125958026335e-01 -2.186535238467372633e+00
-2.102022444321841377e+00 -3.300239630516761946e-01 -4.102694618582090197e-02 -3.300239630516761946e-01 -3.331580358640665818e+00 2.594605103254550293e-01 -4.102694618582090197e-02 2.594605103254550293e-01 -2.180979121733968462e+00
-4.911062944508016059e+00 2.896396158313291891e-01 -2.166132623431329951e-01 2.896396158313291891e-01 -4.311780273837328537e+00 -5.512515441855953685e-02 -2.166132623431329951e-01 -5.512515441855953685e-02 -3.986581262569028450e+00
-4.920107873117294695e+00 2.918146018016215537e-01 -2.164598593633353663e-01 2.918146018016215537e-01 -4.307994556579161305e+00 -5.506943405370030853e-02 -2.164598593633353663e-01 -5.506943405370030853e-02 -3.990849889655975868e+00
-4.924483469546657943e+00 2.943944202993170611e-01 -2.163098959122327358e-01 2.943944202993170611e-01 -4.295563755922509941e+00 -5.470037262472526862e-02 -2.163098959122327358e-01 -5.470037262472526862e-02 -3.989622321864725318e+00
-4.929697107142560597e+00 2.968762122292045724e-01 -2.160529631187151633e-01 2.968762122292045724e-01 -4.286983679616361620e+00 -5.431789703383968493e-02 -2.160529631187151633e-01 -5.431789703383968493e-02 -3.990797264866942307e+00
-4.936170300146576650e+00 2.994806233570694309e-01 -2.157611191089432168e-01 2.994806233570694309e-01 -4.280160342591192268e+00 -5.380815888123856305e-02 -2.157611191089432168e-01 -5.380815888123856305e-02 -3.993860853075591688e+00
-1.126422173815512240e+00 1.833511209909710060e-01 -6.720892205512345174e-02 1.833511209909710060e-01 -2.504570193448898419e+00 -2.142199465776208900e-01 -6.720892205512345174e-02 -2.142199465776208900e-01 -1.861495183576852952e+00