3.465499596999999987e+00 0.000000000000000000e+00 0.000000000000000000e+00 0.000000000000000000e+00 3.465499596999999987e+00 0.000000000000000000e+00 0.000000000000000000e+00 0.000000000000000000e+00 3.465499596999999987e+00
3.465499596999999987e+00 0.000000000000000000e+00 0.000000000000000000e+00 0.000000000000000000e+00 3.465499596999999987e+00 0.000000000000000000e+00 0.000000000000000000e+00 0.000000000000000000e+00 3.465499596999999987e+00
3.465499596999999987e+00 0.000000000000000000e+00 0.000000000000000000e+00 0.000000000000000000e+00 3.465499596999999987e+00 0.000000000000000000e+00 0.000000000000000000e+00 0.000000000000000000e+00 3.465499596999999987e+00
3.465499596999999987e+00 0.000000000000000000e+00 0.000000000000000000e+00 0.000000000000000000e+00 3.465499596999999987e+00 0.000000000000000000e+00 0.000000000000000000e+00 0.000000000000000000e+00 3.465499596999999987e+00
3.465499596999999987e+00 0.000000000000000000e+00 0.000000000000000000e+00 0.000000000000000000e+00 3.465499596999999987e+00 0.000000000000000000e+00 0.000000000000000000e+00 0.000000000000000000e+00 3.465499596999999987e+00
3.417125530999999938e+00 0.000000000000000000e+00 0.000000000000000000e+00 -4.274746000000000101e-02 3.482682087999999787e+00 0.000000000000000000e+00 7.122485900000000147e-02 -1.243212500000000047e-02 3.382461650999999847e+00
3.417125530999999938e+00 0.000000000000000000e+00 0.000000000000000000e+00 -4.274746000000000101e-02 3.482682087999999787e+00 0.000000000000000000e+00 7.122485900000000147e-02 -1.243212500000000047e-02 3.382461650999999847e+00
3.417125530999999938e+00 0.000000000000000000e+00 0.000000000000000000e+00 -4.274746000000000101e-02 3.482682087999999787e+00 0.000000000000000000e+00 7.122485900000000147e-02 -1.243212500000000047e-02 3.382461650999999847e+00
3.417125530999999938e+00 0.000000000000000000e+00 0.000000000000000000e+00 -4.274746000000000101e-02 3.482682087999999787e+00 0.000000000000000000e+00 7.122485900000000147e-02 -1.243212500000000047e-02 3.382461650999999847e+00
3.417125530999999938e+00 0.000000000000000000e+00 0.000000000000000000e+00 -4.274746000000000101e-02 3.482682087999999787e+00 0.000000000000000000e+00 7.122485900000000147e-02 -1.243212500000000047e-02 3.382461650999999847e+00
3.402634732000000106e+00 0.000000000000000000e+00 0.000000000000000000e+00 -7.945141999999999483e-02 3.384034057000000040e+00 0.000000000000000000e+00 -4.417840199999999856e-02 3.110851699999999873e-02 3.390721878999999994e+00
3.402634732000000106e+00 0.000000000000000000e+00 0.000000000000000000e+00 -7.945141999999999483e-02 3.384034057000000040e+00 0.000000000000000000e+00 -4.417840199999999856e-02 3.110851699999999873e-02 3.390721878999999994e+00
3.402634732000000106e+00 0.000000000000000000e+00 0.000000000000000000e+00 -7.945141999999999483e-02 3.384034057000000040e+00 0.000000000000000000e+00 -4.417840199999999856e-02 3.110851699999999873e-02 3.390721878999999994e+00
3.402634732000000106e+00 0.000000000000000000e+00 0.000000000000000000e+00 -7.945141999999999483e-02 3.384034057000000040e+00 0.000000000000000000e+00 -4.417840199999999856e-02 3.110851699999999873e-02 3.390721878999999994e+00
3.402634732000000106e+00 0.000000000000000000e+00 0.000000000000000000e+00 -7.945141999999999483e-02 3.384034057000000040e+00 0.000000000000000000e+00 -4.417840199999999856e-02 3.110851699999999873e-02 3.390721878999999994e+00
3.398392850000000021e+00 0.000000000000000000e+00 0.000000000000000000e+00 -1.001558020000000021e-01 3.552597875000000016e+00 0.000000000000000000e+00 -6.335704400000000125e-02 -9.799951299999999643e-02 3.522527166999999793e+00
3.398392850000000021e+00 0.000000000000000000e+00 0.000000000000000000e+00 -1.001558020000000021e-01 3.552597875000000016e+00 0.000000000000000000e+00 -6.335704400000000125e-02 -9.799951299999999643e-02 3.522527166999999793e+00
3.398392850000000021e+00 0.000000000000000000e+00 0.000000000000000000e+00 -1.001558020000000021e-01 3.552597875000000016e+00 0.000000000000000000e+00 -6.335704400000000125e-02 -9.799951299999999643e-02 3.522527166999999793e+00
3.398392850000000021e+00 0.000000000000000000e+00 0.000000000000000000e+00 -1.001558020000000021e-01 3.552597875000000016e+00 0.000000000000000000e+00 -6.335704400000000125e-02 -9.799951299999999643e-02 3.522527166999999793e+00
3.398392850000000021e+00 0.000000000000000000e+00 0.000000000000000000e+00 -1.001558020000000021e-01 3.552597875000000016e+00 0.000000000000000000e+00 -6.335704400000000125e-02 -9.799951299999999643e-02 3.522527166999999793e+00
3.502147647000000141e+00 0.000000000000000000e+00 0.000000000000000000e+00 9.185469100000000220e-02 3.428982054000000002e+00 0.000000000000000000e+00 -7.156286400000000381e-02 8.117691300000000332e-02 3.517223351000000164e+00
3.502147647000000141e+00 0.000000000000000000e+00 0.000000000000000000e+00 9.185469100000000220e-02 3.428982054000000002e+00 0.000000000000000000e+00 -7.156286400000000381e-02 8.117691300000000332e-02 3.517223351000000164e+00
3.502147647000000141e+00 0.000000000000000000e+00 0.000000000000000000e+00 9.185469100000000220e-02 3.428982054000000002e+00 0.000000000000000000e+00 -7.156286400000000381e-02 8.117691300000000332e-02 3.517223351000000164e+00
3.502147647000000141e+00 0.000000000000000000e+00 0.000000000000000000e+00 9.185469100000000220e-02 3.428982054000000002e+00 0.000000000000000000e+00 -7.156286400000000381e-02 8.117691300000000332e-02 3.517223351000000164e+00
3.502147647000000141e+00 0.000000000000000000e+00 0.000000000000000000e+00 9.185469100000000220e-02 3.428982054000000002e+00 0.000000000000000000e+00 -7.156286400000000381e-02 8.117691300000000332e-02 3.517223351000000164e+00
3.572679996000000191e+00 0.000000000000000000e+00 0.000000000000000000e+00 0.000000000000000000e+00 3.572679996000000191e+00 0.000000000000000000e+00 0.000000000000000000e+00 0.000000000000000000e+00 3.572679996000000191e+00
3.572679996000000191e+00 0.000000000000000000e+00 0.000000000000000000e+00 0.000000000000000000e+00 3.572679996000000191e+00 0.000000000000000000e+00 0.000000000000000000e+00 0.000000000000000000e+00 3.572679996000000191e+00
3.572679996000000191e+00 0.000000000000000000e+00 0.000000000000000000e+00 0.000000000000000000e+00 3.572679996000000191e+00 0.000000000000000000e+00 0.000000000000000000e+00 0.000000000000000000e+00 3.572679996000000191e+00
3.572679996000000191e+00 0.000000000000000000e+00 0.000000000000000000e+00 0.000000000000000000e+00 3.572679996000000191e+00 0.000000000000000000e+00 0.000000000000000000e+00 0.000000000000000000e+00 3.572679996000000191e+00
3.572679996000000191e+00 0.000000000000000000e+00 0.000000000000000000e+00 0.000000000000000000e+00 3.572679996000000191e+00 0.000000000000000000e+00 0.000000000000000000e+00 0.000000000000000000e+00 3.572679996000000191e+00
3.544969033000000103e+00 0.000000000000000000e+00 0.000000000000000000e+00 1.056607300000000048e-02 3.609595217999999939e+00 0.000000000000000000e+00 -5.367486500000000216e-02 9.898291600000000412e-02 3.649763955000000060e+00
3.544969033000000103e+00 0.000000000000000000e+00 0.000000000000000000e+00 1.056607300000000048e-02 3.609595217999999939e+00 0.000000000000000000e+00 -5.367486500000000216e-02 9.898291600000000412e-02 3.649763955000000060e+00
3.544969033000000103e+00 0.000000000000000000e+00 0.000000000000000000e+00 1.056607300000000048e-02 3.609595217999999939e+00 0.000000000000000000e+00 -5.367486500000000216e-02 9.898291600000000412e-02 3.649763955000000060e+00
3.544969033000000103e+00 0.000000000000000000e+00 0.000000000000000000e+00 1.056607300000000048e-02 3.609595217999999939e+00 0.000000000000000000e+00 -5.367486500000000216e-02 9.898291600000000412e-02 3.649763955000000060e+00
3.544969033000000103e+00 0.000000000000000000e+00 0.000000000000000000e+00 1.056607300000000048e-02 3.609595217999999939e+00 0.000000000000000000e+00 -5.367486500000000216e-02 9.898291600000000412e-02 3.649763955000000060e+00
3.514929989000000088e+00 0.000000000000000000e+00 0.000000000000000000e+00 1.037892079999999939e-01 3.514895182000000062e+00 0.000000000000000000e+00 3.359368399999999866e-02 -1.566979400000000078e-02 3.567897384000000116e+00
3.514929989000000088e+00 0.000000000000000000e+00 0.000000000000000000e+00 1.037892079999999939e-01 3.514895182000000062e+00 0.000000000000000000e+00 3.359368399999999866e-02 -1.566979400000000078e-02 3.567897384000000116e+00
3.514929989000000088e+00 0.000000000000000000e+00 0.000000000000000000e+00 1.037892079999999939e-01 3.514895182000000062e+00 0.000000000000000000e+00 3.359368399999999866e-02 -1.566979400000000078e-02 3.567897384000000116e+00
3.514929989000000088e+00 0.000000000000000000e+00 0.000000000000000000e+00 1.037892079999999939e-01 3.514895182000000062e+00 0.000000000000000000e+00 3.359368399999999866e-02 -1.566979400000000078e-02 3.567897384000000116e+00
3.514929989000000088e+00 0.000000000000000000e+00 0.000000000000000000e+00 1.037892079999999939e-01 3.514895182000000062e+00 0.000000000000000000e+00 3.359368399999999866e-02 -1.566979400000000078e-02 3.567897384000000116e+00
3.644900445000000211e+00 0.000000000000000000e+00 0.000000000000000000e+00 -7.338444700000000542e-02 3.562614078000000184e+00 0.000000000000000000e+00 8.042836700000000061e-02 1.287503199999999980e-02 3.511284003000000098e+00
3.644900445000000211e+00 0.000000000000000000e+00 0.000000000000000000e+00 -7.338444700000000542e-02 3.562614078000000184e+00 0.000000000000000000e+00 8.042836700000000061e-02 1.287503199999999980e-02 3.511284003000000098e+00
3.644900445000000211e+00 0.000000000000000000e+00 0.000000000000000000e+00 -7.338444700000000542e-02 3.562614078000000184e+00 0.000000000000000000e+00 8.042836700000000061e-02 1.287503199999999980e-02 3.511284003000000098e+00
3.644900445000000211e+00 0.000000000000000000e+00 0.000000000000000000e+00 -7.338444700000000542e-02 3.562614078000000184e+00 0.000000000000000000e+00 8.042836700000000061e-02 1.287503199999999980e-02 3.511284003000000098e+00
3.644900445000000211e+00 0.000000000000000000e+00 0.000000000000000000e+00 -7.338444700000000542e-02 3.562614078000000184e+00 0.000000000000000000e+00 8.042836700000000061e-02 1.287503199999999980e-02 3.511284003000000098e+00
3.630770393000000151e+00 0.000000000000000000e+00 0.000000000000000000e+00 -4.232924999999999882e-02 3.647683696000000086e+00 0.000000000000000000e+00 1.768079399999999968e-02 3.895202400000000176e-02 3.669488970999999822e+00
3.630770393000000151e+00 0.000000000000000000e+00 0.000000000000000000e+00 -4.232924999999999882e-02 3.647683696000000086e+00 0.000000000000000000e+00 1.768079399999999968e-02 3.895202400000000176e-02 3.669488970999999822e+00
3.630770393000000151e+00 0.000000000000000000e+00 0.000000000000000000e+00 -4.232924999999999882e-02 3.647683696000000086e+00 0.000000000000000000e+00 1.768079399999999968e-02 3.895202400000000176e-02 3.669488970999999822e+00
3.630770393000000151e+00 0.000000000000000000e+00 0.000000000000000000e+00 -4.232924999999999882e-02 3.647683696000000086e+00 0.000000000000000000e+00 1.768079399999999968e-02 3.895202400000000176e-02 3.669488970999999822e+00
3.630770393000000151e+00 0.000000000000000000e+00 0.000000000000000000e+00 -4.232924999999999882e-02 3.647683696000000086e+00 0.000000000000000000e+00 1.768079399999999968e-02 3.895202400000000176e-02 3.669488970999999822e+00
3.679860396000000033e+00 0.000000000000000000e+00 0.000000000000000000e+00 0.000000000000000000e+00 3.679860396000000033e+00 0.000000000000000000e+00 0.000000000000000000e+00 0.000000000000000000e+00 3.679860396000000033e+00
3.679860396000000033e+00 0.000000000000000000e+00 0.000000000000000000e+00 0.000000000000000000e+00 3.679860396000000033e+00 0.000000000000000000e+00 0.000000000000000000e+00 0.000000000000000000e+00 3.679860396000000033e+00
3.679860396000000033e+00 0.000000000000000000e+00 0.000000000000000000e+00 0.000000000000000000e+00 3.679860396000000033e+00 0.000000000000000000e+00 0.000000000000000000e+00 0.000000000000000000e+00 3.679860396000000033e+00
3.679860396000000033e+00 0.000000000000000000e+00 0.000000000000000000e+00 0.000000000000000000e+00 3.679860396000000033e+00 0.000000000000000000e+00 0.000000000000000000e+00 0.000000000000000000e+00 3.679860396000000033e+00
3.679860396000000033e+00 0.000000000000000000e+00 0.000000000000000000e+00 0.000000000000000000e+00 3.679860396000000033e+00 0.000000000000000000e+00 0.000000000000000000e+00 0.000000000000000000e+00 3.679860396000000033e+00
3.649934154999999958e+00 0.000000000000000000e+00 0.000000000000000000e+00 -1.543446199999999949e-02 3.671503888000000160e+00 0.000000000000000000e+00 -2.855216799999999930e-02 5.577808499999999808e-02 3.654417624000000142e+00
3.649934154999999958e+00 0.000000000000000000e+00 0.000000000000000000e+00 -1.543446199999999949e-02 3.671503888000000160e+00 0.000000000000000000e+00 -2.855216799999999930e-02 5.577808499999999808e-02 3.654417624000000142e+00
3.649934154999999958e+00 0.000000000000000000e+00 0.000000000000000000e+00 -1.543446199999999949e-02 3.671503888000000160e+00 0.000000000000000000e+00 -2.855216799999999930e-02 5.577808499999999808e-02 3.654417624000000142e+00
3.649934154999999958e+00 0.000000000000000000e+00 0.000000000000000000e+00 -1.543446199999999949e-02 3.671503888000000160e+00 0.000000000000000000e+00 -2.855216799999999930e-02 5.577808499999999808e-02 3.654417624000000142e+00
3.649934154999999958e+00 0.000000000000000000e+00 0.000000000000000000e+00 -1.543446199999999949e-02 3.671503888000000160e+00 0.000000000000000000e+00 -2.855216799999999930e-02 5.577808499999999808e-02 3.654417624000000142e+00
3.736385879999999826e+00 0.000000000000000000e+00 0.000000000000000000e+00 -6.366101999999999872e-02 3.597036301999999797e+00 0.000000000000000000e+00 -4.990923900000000107e-02 -8.409817199999999882e-02 3.575173830999999858e+00
3.736385879999999826e+00 0.000000000000000000e+00 0.000000000000000000e+00 -6.366101999999999872e-02 3.597036301999999797e+00 0.000000000000000000e+00 -4.990923900000000107e-02 -8.409817199999999882e-02 3.575173830999999858e+00
3.736385879999999826e+00 0.000000000000000000e+00 0.000000000000000000e+00 -6.366101999999999872e-02 3.597036301999999797e+00 0.000000000000000000e+00 -4.990923900000000107e-02 -8.409817199999999882e-02 3.575173830999999858e+00
3.736385879999999826e+00 0.000000000000000000e+00 0.000000000000000000e+00 -6.366101999999999872e-02 3.597036301999999797e+00 0.000000000000000000e+00 -4.990923900000000107e-02 -8.409817199999999882e-02 3.575173830999999858e+00
3.736385879999999826e+00 0.000000000000000000e+00 0.000000000000000000e+00 -6.366101999999999872e-02 3.597036301999999797e+00 0.000000000000000000e+00 -4.990923900000000107e-02 -8.409817199999999882e-02 3.575173830999999858e+00
3.622402543999999835e+00 0.000000000000000000e+00 0.000000000000000000e+00 -5.122677099999999734e-02 3.658649490000000171e+00 0.000000000000000000e+00 1.852206400000000128e-02 -6.061211400000000166e-02 3.597290829999999939e+00
3.622402543999999835e+00 0.000000000000000000e+00 0.000000000000000000e+00 -5.122677099999999734e-02 3.658649490000000171e+00 0.000000000000000000e+00 1.852206400000000128e-02 -6.061211400000000166e-02 3.597290829999999939e+00
3.622402543999999835e+00 0.000000000000000000e+00 0.000000000000000000e+00 -5.122677099999999734e-02 3.658649490000000171e+00 0.000000000000000000e+00 1.852206400000000128e-02 -6.061211400000000166e-02 3.597290829999999939e+00
3.622402543999999835e+00 0.000000000000000000e+00 0.000000000000000000e+00 -5.122677099999999734e-02 3.658649490000000171e+00 0.000000000000000000e+00 1.852206400000000128e-02 -6.061211400000000166e-02 3.597290829999999939e+00
3.622402543999999835e+00 0.000000000000000000e+00 0.000000000000000000e+00 -5.122677099999999734e-02 3.658649490000000171e+00 0.000000000000000000e+00 1.852206400000000128e-02 -6.061211400000000166e-02 3.597290829999999939e+00
3.587897959000000192e+00 0.000000000000000000e+00 0.000000000000000000e+00 8.979853399999999930e-02 3.634513640999999851e+00 0.000000000000000000e+00 5.690618000000000065e-02 5.519697800000000071e-02 3.733428523000000165e+00
3.587897959000000192e+00 0.000000000000000000e+00 0.000000000000000000e+00 8.979853399999999930e-02 3.634513640999999851e+00 0.000000000000000000e+00 5.690618000000000065e-02 5.519697800000000071e-02 3.733428523000000165e+00
3.587897959000000192e+00 0.000000000000000000e+00 0.000000000000000000e+00 8.979853399999999930e-02 3.634513640999999851e+00 0.000000000000000000e+00 5.690618000000000065e-02 5.519697800000000071e-02 3.733428523000000165e+00
3.587897959000000192e+00 0.000000000000000000e+00 0.000000000000000000e+00 8.979853399999999930e-02 3.634513640999999851e+00 0.000000000000000000e+00 5.690618000000000065e-02 5.519697800000000071e-02 3.733428523000000165e+00
3.587897959000000192e+00 0.000000000000000000e+00 0.000000000000000000e+00 8.979853399999999930e-02 3.634513640999999851e+00 0.000000000000000000e+00 5.690618000000000065e-02 5.519697800000000071e-02 3.733428523000000165e+00
