0.000000000000000000e+00 1.732750000000000012e+00 1.732750000000000012e+00 1.732750000000000012e+00 0.000000000000000000e+00 1.732750000000000012e+00 1.732750000000000012e+00 1.732750000000000012e+00 0.000000000000000000e+00 0.000000000000000000e+00 0.000000000000000000e+00 0.000000000000000000e+00
3.464490000000000069e+00 1.735160000000000036e+00 1.733959999999999946e+00 1.732080000000000064e+00 3.464780000000000193e+00 1.730359999999999898e+00 1.731740000000000057e+00 1.729160000000000030e+00 1.920000000000000049e-03 2.510000000000000078e-03 1.770000000000000089e-03 3.464809999999999945e+00
3.463480000000000114e+00 1.737570000000000059e+00 1.735170000000000101e+00 1.731409999999999894e+00 3.464069999999999983e+00 1.727989999999999915e+00 1.730730000000000102e+00 1.725570000000000048e+00 3.830000000000000071e-03 5.009999999999999697e-03 3.530000000000000152e-03 3.464109999999999800e+00
3.462470000000000159e+00 1.739970000000000017e+00 1.736390000000000100e+00 1.730750000000000011e+00 3.463340000000000085e+00 1.725619999999999932e+00 1.729740000000000055e+00 1.722010000000000041e+00 5.729999999999999850e-03 7.490000000000000130e-03 5.290000000000000431e-03 3.463420000000000165e+00
3.461450000000000138e+00 1.742369999999999974e+00 1.737600000000000033e+00 1.730099999999999971e+00 3.462619999999999809e+00 1.723279999999999923e+00 1.728760000000000074e+00 1.718469999999999942e+00 7.609999999999999577e-03 9.950000000000000511e-03 7.020000000000000198e-03 3.462720000000000020e+00
1.557000000000000051e-02 1.740990000000000038e+00 1.685219999999999940e+00 1.740329999999999933e+00 -2.230000000000000211e-03 1.697920000000000096e+00 1.685820000000000096e+00 1.736720000000000041e+00 2.089999999999999844e-03 3.440399999999999903e+00 3.464799999999999880e+00 3.380739999999999856e+00
1.426000000000000011e-02 1.741880000000000095e+00 1.683880000000000043e+00 1.739079999999999959e+00 -1.170000000000000033e-03 1.694819999999999993e+00 1.689359999999999973e+00 1.735049999999999981e+00 3.599999999999999901e-03 3.368269999999999875e+00 3.476970000000000116e+00 1.010000000000000047e-03
3.430070000000000174e+00 1.742750000000000021e+00 1.682560000000000056e+00 1.737819999999999920e+00 -1.100000000000000039e-04 1.691729999999999956e+00 1.692890000000000006e+00 1.733400000000000052e+00 5.100000000000000366e-03 3.367370000000000196e+00 3.476719999999999811e+00 3.720000000000000216e-03
3.428770000000000095e+00 1.743610000000000104e+00 1.681289999999999951e+00 1.736569999999999947e+00 9.200000000000000278e-04 1.688649999999999984e+00 1.696399999999999908e+00 1.731770000000000032e+00 6.559999999999999859e-03 3.366490000000000204e+00 3.476469999999999949e+00 6.409999999999999899e-03
3.427480000000000082e+00 1.744450000000000056e+00 1.680060000000000109e+00 1.735300000000000065e+00 1.940000000000000101e-03 1.685619999999999896e+00 1.699869999999999992e+00 1.730159999999999920e+00 7.969999999999999654e-03 3.365639999999999965e+00 3.476240000000000219e+00 9.060000000000000345e-03
-6.160000000000000198e-02 1.702769999999999895e+00 1.692849999999999966e+00 1.606489999999999974e+00 3.396160000000000068e+00 1.697179999999999911e+00 1.662439999999999918e+00 1.689529999999999976e+00 9.300000000000000541e-04 3.320699999999999985e+00 3.382719999999999949e+00 6.879999999999999831e-03
3.337410000000000210e+00 1.700679999999999970e+00 1.692360000000000086e+00 1.610800000000000010e+00 3.397499999999999964e+00 1.697980000000000045e+00 1.617340000000000000e+00 1.720960000000000045e+00 3.390270000000000117e+00 3.320930000000000160e+00 3.383129999999999971e+00 7.870000000000000259e-03
3.333829999999999849e+00 1.698600000000000110e+00 1.691889999999999894e+00 1.615059999999999940e+00 3.398820000000000174e+00 1.698790000000000022e+00 1.616400000000000059e+00 1.721289999999999987e+00 3.388889999999999958e+00 3.321180000000000021e+00 3.383529999999999927e+00 8.850000000000000228e-03
3.330299999999999816e+00 1.696560000000000068e+00 1.691429999999999989e+00 1.698700000000000099e+00 1.608000000000000054e-02 1.699600000000000000e+00 1.615420000000000078e+00 1.721619999999999928e+00 3.387509999999999799e+00 3.321460000000000079e+00 3.383910000000000196e+00 9.809999999999999276e-03
3.326839999999999797e+00 1.694550000000000001e+00 1.691000000000000059e+00 1.702809999999999935e+00 1.736000000000000043e-02 1.700409999999999977e+00 1.614409999999999901e+00 1.721970000000000001e+00 3.386120000000000019e+00 3.401250000000000107e+00 2.400000000000000061e-04 1.073999999999999955e-02
-8.040999999999999537e-02 1.729889999999999928e+00 1.760499999999999954e+00 1.569409999999999972e+00 3.503530000000000033e+00 1.759560000000000013e+00 1.654530000000000056e+00 1.778299999999999992e+00 1.100000000000000066e-03 3.230020000000000113e+00 3.449219999999999953e+00 3.517659999999999787e+00
3.314890000000000114e+00 1.728429999999999911e+00 1.763660000000000005e+00 1.670479999999999965e+00 -4.873000000000000248e-02 1.756280000000000063e+00 1.656439999999999912e+00 1.777309999999999945e+00 4.899999999999999842e-04 3.230269999999999975e+00 3.451179999999999914e+00 3.518349999999999866e+00
3.311819999999999986e+00 1.726960000000000051e+00 1.766809999999999992e+00 1.671380000000000088e+00 -4.839000000000000246e-02 1.752999999999999892e+00 1.594969999999999999e+00 1.678309999999999969e+00 3.522400000000000198e+00 3.230550000000000033e+00 3.453160000000000007e+00 3.519050000000000011e+00
3.308780000000000054e+00 1.725489999999999968e+00 1.769949999999999912e+00 1.672239999999999949e+00 -4.805000000000000243e-02 1.749719999999999942e+00 1.596819999999999906e+00 1.677300000000000013e+00 3.521780000000000133e+00 3.330999999999999961e+00 -9.744999999999999496e-02 3.519750000000000156e+00
3.305790000000000006e+00 1.724029999999999951e+00 1.773069999999999924e+00 1.673079999999999901e+00 -4.771000000000000241e-02 1.746469999999999967e+00 1.598619999999999930e+00 1.676309999999999967e+00 3.521160000000000068e+00 3.331339999999999968e+00 -9.546999999999999931e-02 3.520449999999999857e+00
3.509209999999999940e+00 1.752220000000000111e+00 1.756059999999999954e+00 1.813860000000000028e+00 3.467579999999999885e+00 1.762629999999999919e+00 1.732629999999999892e+00 1.798100000000000032e+00 3.512169999999999792e+00 -7.152999999999999636e-02 8.122000000000000053e-02 3.517189999999999817e+00
1.051999999999999984e-02 1.753700000000000037e+00 1.755309999999999926e+00 1.813479999999999981e+00 3.467290000000000205e+00 1.766510000000000025e+00 1.730690000000000062e+00 1.798550000000000093e+00 3.511379999999999946e+00 3.521409999999999929e+00 3.508669999999999956e+00 3.515019999999999811e+00
1.399000000000000070e-02 1.755169999999999897e+00 1.754539999999999988e+00 1.813090000000000090e+00 3.467010000000000147e+00 1.770350000000000090e+00 1.728730000000000100e+00 1.798999999999999932e+00 3.510619999999999852e+00 3.520360000000000156e+00 3.507150000000000212e+00 3.512869999999999937e+00
1.746999999999999942e-02 1.756629999999999914e+00 1.753759999999999986e+00 1.812680000000000069e+00 3.466740000000000155e+00 1.774140000000000050e+00 1.726760000000000073e+00 1.799430000000000085e+00 3.509889999999999954e+00 3.519330000000000069e+00 3.505630000000000024e+00 3.510749999999999815e+00
2.094999999999999987e-02 1.758070000000000022e+00 1.752960000000000074e+00 1.812270000000000048e+00 3.466489999999999849e+00 1.777879999999999905e+00 1.724790000000000045e+00 1.799830000000000041e+00 3.509199999999999875e+00 3.518310000000000048e+00 3.504140000000000033e+00 3.508659999999999890e+00
0.000000000000000000e+00 1.786340000000000039e+00 1.786340000000000039e+00 1.786340000000000039e+00 0.000000000000000000e+00 1.786340000000000039e+00 1.786340000000000039e+00 1.786340000000000039e+00 0.000000000000000000e+00 0.000000000000000000e+00 0.000000000000000000e+00 0.000000000000000000e+00
3.571089999999999876e+00 1.784119999999999928e+00 1.785439999999999916e+00 1.788559999999999928e+00 1.910000000000000022e-03 1.789830000000000032e+00 1.784659999999999913e+00 1.784750000000000059e+00 3.570650000000000102e+00 9.799999999999999684e-04 1.770000000000000089e-03 3.572150000000000158e+00
3.569500000000000117e+00 1.781910000000000105e+00 1.784540000000000015e+00 1.790780000000000038e+00 3.810000000000000019e-03 1.793320000000000025e+00 1.782990000000000075e+00 1.783169999999999922e+00 3.568630000000000191e+00 1.949999999999999910e-03 3.530000000000000152e-03 3.571629999999999860e+00
3.567919999999999980e+00 1.779719999999999969e+00 1.783630000000000049e+00 1.792980000000000018e+00 5.689999999999999745e-03 1.796790000000000109e+00 1.781320000000000014e+00 1.781609999999999916e+00 3.566619999999999902e+00 2.929999999999999879e-03 5.270000000000000379e-03 3.571120000000000072e+00
3.566339999999999844e+00 1.777549999999999963e+00 1.782710000000000017e+00 1.795179999999999998e+00 7.550000000000000287e-03 1.800229999999999997e+00 1.779649999999999954e+00 1.780070000000000041e+00 3.564639999999999809e+00 3.899999999999999821e-03 6.989999999999999686e-03 3.570619999999999905e+00
-2.041000000000000106e-02 1.857040000000000024e+00 1.825760000000000050e+00 1.754369999999999985e+00 3.658700000000000063e+00 1.825029999999999930e+00 1.721989999999999910e+00 1.903119999999999923e+00 3.649760000000000115e+00 -3.996000000000000246e-02 3.702679999999999971e+00 3.645880000000000010e+00
-1.778000000000000067e-02 1.856559999999999988e+00 1.825839999999999907e+00 1.743400000000000061e+00 4.984000000000000236e-02 1.824859999999999927e+00 1.718010000000000037e+00 1.902030000000000109e+00 3.647040000000000060e+00 -3.831999999999999990e-02 3.703460000000000196e+00 3.648489999999999789e+00
-1.518000000000000078e-02 1.856070000000000109e+00 1.825909999999999922e+00 1.743009999999999948e+00 5.057999999999999996e-02 1.824680000000000080e+00 1.714050000000000074e+00 1.900940000000000074e+00 3.644340000000000135e+00 1.697999999999999857e-02 3.605249999999999844e+00 1.350000000000000071e-03
-1.260000000000000009e-02 1.855580000000000007e+00 1.825970000000000093e+00 1.742639999999999967e+00 5.131999999999999756e-02 1.824500000000000011e+00 1.710120000000000084e+00 1.899850000000000039e+00 3.641640000000000210e+00 1.857999999999999929e-02 3.606040000000000134e+00 3.959999999999999978e-03
-1.004999999999999991e-02 1.855080000000000062e+00 1.826030000000000042e+00 1.742299999999999960e+00 5.204999999999999905e-02 1.824319999999999942e+00 1.706220000000000070e+00 1.898760000000000003e+00 3.638959999999999972e+00 2.016000000000000084e-02 3.606829999999999981e+00 6.579999999999999911e-03
3.581659999999999844e+00 1.749880000000000102e+00 1.784030000000000005e+00 1.774170000000000025e+00 -7.570000000000000340e-03 1.784499999999999975e+00 1.813609999999999944e+00 1.752529999999999921e+00 6.999999999999999929e-04 1.076499999999999957e-01 3.511219999999999786e+00 3.989999999999999623e-03
3.581389999999999851e+00 1.751270000000000104e+00 1.784890000000000088e+00 1.881359999999999921e+00 3.504610000000000003e+00 1.785009999999999986e+00 1.809530000000000083e+00 1.752969999999999917e+00 1.039999999999999909e-03 1.085399999999999976e-01 3.512039999999999829e+00 2.399999999999999790e-03
3.581129999999999924e+00 1.752660000000000107e+00 1.785749999999999948e+00 1.884759999999999991e+00 3.501889999999999947e+00 1.785509999999999931e+00 1.805449999999999999e+00 1.753409999999999913e+00 1.389999999999999960e-03 1.094200000000000034e-01 3.512880000000000003e+00 8.000000000000000383e-04
3.580869999999999997e+00 1.754019999999999913e+00 1.786610000000000031e+00 1.888149999999999995e+00 3.499179999999999957e+00 1.786019999999999941e+00 1.801369999999999916e+00 1.753849999999999909e+00 1.740000000000000010e-03 1.438899999999999901e-01 3.498050000000000104e+00 3.567110000000000003e+00
3.580610000000000070e+00 1.755370000000000097e+00 1.787460000000000049e+00 1.891529999999999934e+00 3.496490000000000098e+00 1.786520000000000108e+00 1.797320000000000029e+00 1.754280000000000062e+00 2.089999999999999844e-03 1.447599999999999998e-01 3.498889999999999834e+00 3.565519999999999801e+00
4.029999999999999728e-03 1.787740000000000107e+00 1.754620000000000068e+00 1.787830000000000030e+00 3.565510000000000179e+00 1.754950000000000010e+00 1.864200000000000079e+00 1.793679999999999941e+00 3.504389999999999894e+00 3.724279999999999813e+00 1.485000000000000035e-02 3.504509999999999792e+00
5.150000000000000064e-03 1.789800000000000058e+00 1.754899999999999904e+00 1.789879999999999916e+00 3.561879999999999935e+00 1.753120000000000012e+00 1.862020000000000008e+00 1.793639999999999901e+00 3.503140000000000143e+00 3.723370000000000068e+00 1.634999999999999995e-02 3.507109999999999950e+00
6.259999999999999939e-03 1.791840000000000099e+00 1.755169999999999897e+00 1.791919999999999957e+00 3.558260000000000201e+00 1.751279999999999948e+00 1.859839999999999938e+00 1.793600000000000083e+00 3.501900000000000013e+00 3.722459999999999880e+00 1.785000000000000128e-02 3.509729999999999794e+00
7.360000000000000223e-03 1.793870000000000076e+00 1.755430000000000046e+00 1.793970000000000065e+00 3.554670000000000218e+00 1.749430000000000041e+00 1.857669999999999932e+00 1.793549999999999978e+00 3.500680000000000014e+00 3.641119999999999912e+00 6.479999999999999649e-03 1.059999999999999961e-03
8.460000000000000506e-03 1.795889999999999986e+00 1.755679999999999907e+00 1.796010000000000106e+00 3.551099999999999923e+00 1.747589999999999977e+00 1.855509999999999993e+00 1.793479999999999963e+00 3.499460000000000015e+00 3.640210000000000168e+00 7.990000000000000574e-03 3.680000000000000111e-03
3.618399999999999839e+00 1.844049999999999967e+00 1.835560000000000080e+00 1.820940000000000003e+00 2.330000000000000127e-02 1.833690000000000042e+00 1.817490000000000050e+00 1.867939999999999934e+00 3.667940000000000200e+00 3.604350000000000165e+00 3.686519999999999797e+00 3.667739999999999778e+00
-1.009999999999999960e-02 1.846430000000000016e+00 1.833269999999999955e+00 1.819420000000000037e+00 2.118000000000000091e-02 1.832840000000000025e+00 1.819209999999999994e+00 1.866160000000000041e+00 3.668740000000000112e+00 3.626700000000000035e+00 1.299999999999999940e-03 4.200000000000000174e-04
-7.839999999999999747e-03 1.848810000000000064e+00 1.830989999999999895e+00 1.775570000000000093e+00 3.666749999999999954e+00 1.832000000000000073e+00 1.803239999999999954e+00 1.825420000000000043e+00 5.000000000000000240e-05 3.624420000000000197e+00 2.720000000000000195e-03 2.589999999999999854e-03
-5.579999999999999891e-03 1.851189999999999891e+00 1.828710000000000058e+00 1.774049999999999905e+00 3.664629999999999832e+00 1.831159999999999899e+00 1.804939999999999989e+00 1.823630000000000084e+00 8.400000000000000348e-04 3.622139999999999915e+00 4.139999999999999583e-03 4.749999999999999882e-03
-3.310000000000000008e-03 1.853550000000000031e+00 1.826449999999999907e+00 1.772540000000000004e+00 3.662529999999999841e+00 1.830340000000000078e+00 1.806629999999999958e+00 1.821839999999999904e+00 1.619999999999999912e-03 3.619870000000000143e+00 5.559999999999999838e-03 6.890000000000000291e-03
0.000000000000000000e+00 1.839930000000000065e+00 1.839930000000000065e+00 1.839930000000000065e+00 0.000000000000000000e+00 1.839930000000000065e+00 1.839930000000000065e+00 1.839930000000000065e+00 0.000000000000000000e+00 0.000000000000000000e+00 0.000000000000000000e+00 0.000000000000000000e+00
3.679269999999999818e+00 1.841790000000000038e+00 1.839599999999999902e+00 1.840349999999999930e+00 3.678650000000000198e+00 1.840060000000000029e+00 1.837679999999999980e+00 1.843339999999999979e+00 3.679730000000000167e+00 2.259999999999999856e-03 3.676079999999999792e+00 3.099999999999999999e-04
3.678669999999999884e+00 1.843630000000000102e+00 1.839269999999999960e+00 1.840780000000000083e+00 3.677449999999999886e+00 1.840189999999999992e+00 1.835429999999999895e+00 1.846740000000000048e+00 3.679590000000000138e+00 4.510000000000000120e-03 3.672309999999999963e+00 6.199999999999999999e-04
3.678080000000000016e+00 1.845469999999999944e+00 1.838950000000000085e+00 1.841210000000000013e+00 3.676270000000000149e+00 1.840319999999999956e+00 1.833190000000000097e+00 1.850130000000000052e+00 3.679460000000000175e+00 6.749999999999999924e-03 3.668559999999999821e+00 9.300000000000000541e-04
3.677470000000000017e+00 1.847280000000000033e+00 1.838619999999999921e+00 1.841639999999999944e+00 3.675100000000000033e+00 1.840449999999999919e+00 1.830950000000000077e+00 1.853480000000000016e+00 3.679320000000000146e+00 8.989999999999999727e-03 3.664829999999999810e+00 1.229999999999999974e-03
3.626660000000000217e+00 1.868279999999999941e+00 1.828740000000000032e+00 1.811280000000000001e+00 3.073000000000000037e-02 1.823090000000000099e+00 1.788129999999999997e+00 1.897149999999999892e+00 3.652350000000000207e+00 -1.454000000000000084e-02 3.668200000000000127e+00 7.000000000000000146e-03
-1.986999999999999877e-02 1.869650000000000034e+00 1.825080000000000036e+00 1.810259999999999980e+00 2.939999999999999905e-02 1.822459999999999969e+00 1.787309999999999954e+00 1.896870000000000056e+00 3.653690000000000104e+00 3.633939999999999948e+00 3.668429999999999858e+00 9.740000000000000394e-03
-1.646999999999999853e-02 1.870999999999999996e+00 1.821430000000000105e+00 1.809250000000000025e+00 2.808000000000000079e-02 1.821849999999999969e+00 1.815039999999999987e+00 1.840799999999999992e+00 6.099999999999999737e-04 3.632480000000000153e+00 3.668670000000000098e+00 1.247000000000000018e-02
-1.307999999999999961e-02 1.872339999999999893e+00 1.817800000000000082e+00 1.792810000000000015e+00 3.698280000000000012e+00 1.821260000000000101e+00 1.814219999999999944e+00 1.840500000000000025e+00 1.920000000000000049e-03 3.631019999999999914e+00 3.668930000000000025e+00 1.518000000000000078e-02
-9.700000000000000289e-03 1.873660000000000103e+00 1.814189999999999969e+00 1.791809999999999903e+00 3.696989999999999998e+00 1.820699999999999985e+00 1.813420000000000032e+00 1.840179999999999927e+00 3.220000000000000206e-03 3.629550000000000054e+00 3.669200000000000017e+00 1.785000000000000128e-02
3.678669999999999884e+00 1.753789999999999960e+00 1.784299999999999997e+00 1.777409999999999934e+00 3.552560000000000162e+00 1.784799999999999942e+00 1.838529999999999998e+00 1.798519999999999897e+00 2.459999999999999947e-03 2.599999999999999772e-04 3.200000000000000262e-04 2.909999999999999826e-03
-5.605000000000000260e-02 1.754610000000000003e+00 1.785300000000000109e+00 1.779649999999999954e+00 3.548610000000000042e+00 1.784359999999999946e+00 1.836319999999999952e+00 1.801579999999999959e+00 1.479999999999999979e-03 3.735090000000000021e+00 3.800000000000000209e-04 3.310000000000000008e-03
-5.437999999999999778e-02 1.755430000000000046e+00 1.786299999999999999e+00 1.781879999999999908e+00 3.544680000000000053e+00 1.783919999999999950e+00 1.834100000000000064e+00 1.804629999999999956e+00 4.899999999999999842e-04 3.733519999999999950e+00 4.400000000000000157e-04 3.700000000000000164e-03
-5.272000000000000297e-02 1.756240000000000023e+00 1.787309999999999954e+00 1.784100000000000019e+00 3.540760000000000129e+00 1.783500000000000085e+00 1.781979999999999897e+00 1.723559999999999981e+00 3.574669999999999792e+00 3.731970000000000010e+00 5.100000000000000366e-04 4.089999999999999886e-03
-5.106000000000000122e-02 1.757039999999999935e+00 1.788319999999999910e+00 1.786319999999999908e+00 3.536869999999999958e+00 1.783079999999999998e+00 1.779770000000000074e+00 1.726569999999999938e+00 3.573669999999999902e+00 3.730410000000000004e+00 5.900000000000000296e-04 4.470000000000000015e-03
3.605910000000000171e+00 1.802929999999999922e+00 1.798280000000000101e+00 1.769700000000000051e+00 3.627780000000000005e+00 1.798340000000000050e+00 1.803739999999999899e+00 1.763679999999999914e+00 3.594160000000000021e+00 -5.050000000000000322e-02 3.657350000000000101e+00 1.750000000000000036e-03
-1.301000000000000073e-02 1.803790000000000004e+00 1.796559999999999935e+00 1.768420000000000103e+00 3.625820000000000043e+00 1.799090000000000078e+00 1.804370000000000029e+00 1.761710000000000109e+00 3.594279999999999919e+00 3.620490000000000208e+00 1.559999999999999972e-03 2.540000000000000157e-03
-9.530000000000000276e-03 1.804650000000000087e+00 1.794839999999999991e+00 1.767149999999999999e+00 3.623860000000000081e+00 1.799840000000000106e+00 1.804999999999999938e+00 1.759740000000000082e+00 3.594399999999999817e+00 3.617849999999999788e+00 4.409999999999999858e-03 3.340000000000000087e-03
-6.049999999999999822e-03 1.805500000000000105e+00 1.793120000000000047e+00 1.765879999999999894e+00 3.621900000000000119e+00 1.800589999999999913e+00 1.805630000000000068e+00 1.757789999999999964e+00 3.594520000000000159e+00 3.615209999999999813e+00 7.259999999999999960e-03 4.129999999999999991e-03
-2.589999999999999854e-03 1.806349999999999900e+00 1.791409999999999947e+00 1.764610000000000012e+00 3.619940000000000158e+00 1.801339999999999941e+00 1.806270000000000042e+00 1.755849999999999911e+00 3.594640000000000057e+00 3.612569999999999837e+00 1.009999999999999960e-02 4.910000000000000302e-03
7.574000000000000177e-02 1.845480000000000009e+00 1.868530000000000024e+00 1.823039999999999994e+00 2.845999999999999919e-02 1.864780000000000104e+00 1.900360000000000049e+00 1.868139999999999912e+00 3.729499999999999815e+00 3.670510000000000161e+00 3.630110000000000170e+00 2.919999999999999853e-03
7.642999999999999794e-02 1.848829999999999973e+00 1.870309999999999917e+00 1.911620000000000097e+00 3.658869999999999845e+00 1.865590000000000082e+00 1.902230000000000087e+00 1.868060000000000054e+00 3.727899999999999991e+00 3.669270000000000032e+00 3.630889999999999951e+00 2.000000000000000042e-03
7.710999999999999799e-02 1.852170000000000094e+00 1.872079999999999966e+00 1.910400000000000098e+00 3.654780000000000140e+00 1.866400000000000059e+00 1.904090000000000060e+00 1.867979999999999974e+00 3.726309999999999789e+00 3.668039999999999967e+00 3.631670000000000176e+00 1.080000000000000014e-03
7.779999999999999416e-02 1.855499999999999927e+00 1.873839999999999950e+00 1.909170000000000034e+00 3.650689999999999991e+00 1.867199999999999971e+00 1.905939999999999968e+00 1.867890000000000050e+00 3.724730000000000096e+00 3.666819999999999968e+00 3.632460000000000022e+00 1.700000000000000122e-04
7.850000000000000033e-02 1.858800000000000008e+00 1.875569999999999959e+00 1.907939999999999969e+00 3.646630000000000038e+00 1.867990000000000039e+00 1.907769999999999966e+00 1.867790000000000061e+00 3.723170000000000091e+00 3.722519999999999829e+00 3.688460000000000072e+00 3.732689999999999841e+00
