-3.548628379000000166e+01
-3.548601929000000155e+01
-3.548522883999999777e+01
-3.548392357000000175e+01
-3.548212022999999959e+01
-3.518795839999999941e+01
-3.518737347999999798e+01
-3.518566301999999979e+01
-3.518286840999999754e+01
-3.517905491999999867e+01
-3.483110837000000259e+01
-3.482960256999999871e+01
-3.482713882000000183e+01
-3.482377696999999728e+01
-3.481959583999999808e+01
-3.558866694999999680e+01
-3.558835321000000107e+01
-3.558739431000000053e+01
-3.558580761000000336e+01
-3.558362033000000224e+01
-3.555203171000000140e+01
-3.555188512000000145e+01
-3.555093773000000112e+01
-3.554920746999999892e+01
-3.554672705000000121e+01
-3.578599554000000182e+01
-3.578565778000000108e+01
-3.578465197999999958e+01
-3.578299585999999977e+01
-3.578071579000000213e+01
-3.575459843000000149e+01
-3.575411791999999878e+01
-3.575306754999999725e+01
-3.575146553999999810e+01
-3.574933674999999766e+01
-3.573716779000000088e+01
-3.573721925000000255e+01
-3.573684150999999787e+01
-3.573604047999999977e+01
-3.573482515999999976e+01
-3.577368480999999889e+01
-3.577354691000000031e+01
-3.577303185000000241e+01
-3.577214518000000254e+01
-3.577089509000000334e+01
-3.565567075999999958e+01
-3.565557072000000005e+01
-3.565513890999999802e+01
-3.565437783000000138e+01
-3.565329573000000352e+01
-3.554808089000000138e+01
-3.554780265000000128e+01
-3.554696882999999730e+01
-3.554558942999999971e+01
-3.554368112000000224e+01
-3.562453837000000334e+01
-3.562395251000000229e+01
-3.562287323999999700e+01
-3.562131624999999957e+01
-3.561930084000000107e+01
-3.569554782000000159e+01
-3.569545954000000165e+01
-3.569489011999999661e+01
-3.569386305999999820e+01
-3.569239127000000167e+01
-3.571490158999999665e+01
-3.571473076000000191e+01
-3.571430601000000138e+01
-3.571362873999999721e+01
-3.571270366000000251e+01
-3.564892953999999747e+01
-3.564854289000000165e+01
-3.564770174000000225e+01
-3.564641532000000268e+01
-3.564469951000000236e+01
