9.999999999999999547e-07 0.000000000000000000e+00 0.000000000000000000e+00 0.000000000000000000e+00 9.999999999999999547e-07 9.999999999999999547e-07 9.999999999999999547e-07 0.000000000000000000e+00 0.000000000000000000e+00 0.000000000000000000e+00 0.000000000000000000e+00 0.000000000000000000e+00
-1.158400000000000055e-02 -9.756000000000000782e-03 4.741000000000000422e-03 2.564699999999999966e-02 -7.853000000000000605e-03 3.982999999999999735e-02 2.888800000000000048e-02 4.809599999999999986e-02 -3.546400000000000247e-02 -4.155600000000000266e-02 -2.926199999999999982e-02 -9.251999999999999807e-03
-2.257699999999999985e-02 -2.042400000000000118e-02 8.959999999999999215e-03 5.085200000000000137e-02 -1.561899999999999920e-02 7.956000000000000572e-02 5.756700000000000012e-02 9.680800000000000516e-02 -7.082900000000000307e-02 -8.371199999999999475e-02 -5.892300000000000315e-02 -1.811099999999999863e-02
-3.393899999999999695e-02 -2.973699999999999954e-02 1.368699999999999951e-02 7.544499999999999817e-02 -2.365300000000000041e-02 1.176640000000000047e-01 8.518299999999999483e-02 1.430130000000000012e-01 -1.044329999999999981e-01 -1.248549999999999938e-01 -8.787699999999999678e-02 -2.703799999999999953e-02
-4.416500000000000287e-02 -4.064899999999999763e-02 1.740799999999999986e-02 9.985099999999999532e-02 -3.074899999999999856e-02 1.563219999999999887e-01 1.128799999999999942e-01 1.903779999999999917e-01 -1.387970000000000037e-01 -1.662619999999999931e-01 -1.169660000000000005e-01 -3.529899999999999705e-02
-5.161299999999999916e-02 -8.401500000000000634e-02 6.521599999999999620e-02 3.059999999999999873e-02 -2.840000000000000163e-02 -6.467399999999999538e-02 5.368000000000000375e-03 3.668799999999999839e-02 -2.062699999999999950e-02 1.534800000000000053e-02 7.522800000000000320e-02 2.017899999999999902e-02
-3.089000000000000166e-03 -8.208999999999999631e-02 1.377559999999999896e-01 1.083499999999999915e-02 -5.294100000000000195e-02 2.652699999999999850e-02 -6.633600000000000607e-02 6.669600000000000528e-02 -9.901400000000000479e-02 5.840900000000000258e-02 6.804100000000000426e-02 -6.515400000000000358e-02
4.644899999999999723e-02 -8.141299999999999926e-02 2.104989999999999917e-01 -6.743999999999999995e-03 -7.835899999999999810e-02 1.207199999999999940e-01 -1.418550000000000089e-01 9.825699999999999712e-02 -1.780430000000000068e-01 1.015009999999999940e-01 6.085200000000000331e-02 -1.507979999999999876e-01
9.422200000000000020e-02 -7.942399999999999460e-02 2.807729999999999948e-01 -2.570100000000000162e-02 -1.024240000000000012e-01 2.105829999999999924e-01 -2.130559999999999954e-01 1.277530000000000054e-01 -2.543210000000000193e-01 1.438639999999999919e-01 5.350800000000000001e-02 -2.349749999999999894e-01
1.413270000000000082e-01 -7.768899999999999417e-02 3.493749999999999911e-01 -4.350899999999999906e-02 -1.263759999999999883e-01 2.992969999999999797e-01 -2.836890000000000245e-01 1.571150000000000047e-01 -3.287800000000000167e-01 1.853980000000000072e-01 4.617399999999999977e-02 -3.175790000000000002e-01
9.155199999999999450e-02 4.142699999999999855e-02 1.137620000000000020e-01 -1.389569999999999972e-01 -1.643999999999999975e-02 6.042800000000000255e-02 -6.820700000000000374e-02 5.395999999999999755e-03 -5.744099999999999900e-02 1.157320000000000015e-01 -3.130000000000000143e-02 -1.160530000000000034e-01
1.956249999999999933e-01 9.925100000000000589e-02 1.134180000000000049e-01 -2.503000000000000225e-01 -6.561899999999999678e-02 4.360300000000000287e-02 -1.107920000000000016e-01 2.659699999999999911e-02 -3.694000000000000061e-02 1.647589999999999888e-01 -6.024100000000000288e-02 -1.191190000000000027e-01
2.944200000000000150e-01 1.538640000000000008e-01 1.120239999999999986e-01 -3.555269999999999819e-01 -1.123730000000000007e-01 2.717100000000000071e-02 -1.519850000000000090e-01 4.720300000000000190e-02 -1.666400000000000173e-02 2.123120000000000007e-01 -8.878099999999999881e-02 -1.217860000000000054e-01
3.912709999999999799e-01 2.078230000000000077e-01 1.100269999999999998e-01 -4.587649999999999784e-01 -1.583660000000000068e-01 1.029399999999999933e-02 -1.914839999999999876e-01 6.721299999999999497e-02 4.252999999999999836e-03 2.581539999999999946e-01 -1.167470000000000036e-01 -1.239559999999999967e-01
4.849080000000000057e-01 2.603690000000000171e-01 1.074849999999999972e-01 -5.589699999999999669e-01 -2.030669999999999975e-01 -6.813999999999999745e-03 -2.287649999999999961e-01 8.637699999999999545e-02 2.549399999999999930e-02 3.016980000000000217e-01 -1.438719999999999999e-01 -1.257350000000000134e-01
6.438900000000000179e-02 -8.858399999999999608e-02 -1.792699999999999849e-02 -6.783100000000000240e-02 6.044599999999999973e-02 -4.381999999999999611e-03 -9.425300000000000344e-02 -7.858099999999999807e-02 -1.781100000000000044e-02 9.777600000000000180e-02 1.067229999999999984e-01 4.002499999999999808e-02
1.249170000000000003e-01 -4.459799999999999875e-02 -4.859100000000000225e-02 -1.086489999999999956e-01 2.581699999999999967e-02 2.666900000000000173e-02 -1.419580000000000009e-01 -4.486500000000000210e-02 -1.176800000000000068e-02 1.255830000000000002e-01 6.613399999999999834e-02 3.481200000000000266e-02
1.815450000000000119e-01 -1.858000000000000059e-03 -7.620699999999999696e-02 -1.474689999999999890e-01 -8.274000000000000105e-03 5.461699999999999888e-02 -1.867610000000000103e-01 -1.218200000000000012e-02 -6.411000000000000032e-03 1.526319999999999899e-01 2.502400000000000110e-02 2.938800000000000093e-02
2.368349999999999900e-01 4.086399999999999755e-02 -1.033339999999999953e-01 -1.851879999999999915e-01 -4.232899999999999857e-02 8.206800000000000206e-02 -2.303620000000000112e-01 2.049899999999999986e-02 -1.141000000000000087e-03 1.788250000000000117e-01 -1.617000000000000035e-02 2.387999999999999845e-02
2.907399999999999984e-01 8.342399999999999816e-02 -1.301660000000000039e-01 -2.217210000000000014e-01 -7.615600000000000147e-02 1.094180000000000014e-01 -2.727339999999999764e-01 5.307100000000000012e-02 4.079000000000000160e-03 2.039860000000000007e-01 -5.727200000000000346e-02 1.828300000000000064e-02
1.592139999999999944e-01 7.434999999999999769e-03 -2.328699999999999867e-02 -1.379879999999999995e-01 2.711099999999999968e-02 -9.133099999999999552e-02 -1.443300000000000138e-01 -3.372900000000000204e-02 7.799100000000000477e-02 1.225929999999999936e-01 -8.909999999999999734e-04 3.661799999999999777e-02
9.503200000000000536e-02 -2.640400000000000039e-02 -5.189699999999999869e-02 -1.037219999999999948e-01 5.197899999999999743e-02 -1.671070000000000055e-01 -9.674900000000000166e-02 -6.003800000000000109e-02 1.269260000000000110e-01 1.046289999999999998e-01 3.264899999999999747e-02 8.963899999999999646e-02
3.313499999999999779e-02 -5.838999999999999746e-02 -7.977599999999999969e-02 -6.994599999999999429e-02 7.571899999999999464e-02 -2.383389999999999953e-01 -5.065399999999999764e-02 -8.518900000000000083e-02 1.736139999999999906e-01 8.631600000000000383e-02 6.598299999999999998e-02 1.419269999999999976e-01
-2.901300000000000059e-02 -9.001699999999999979e-02 -1.069879999999999998e-01 -3.564500000000000307e-02 9.904000000000000303e-02 -3.083210000000000117e-01 -3.929000000000000201e-03 -1.099569999999999992e-01 2.194029999999999869e-01 6.761499999999999455e-02 9.911200000000000565e-02 1.934609999999999941e-01
-9.115900000000000392e-02 -1.210139999999999966e-01 -1.329259999999999886e-01 -1.307999999999999918e-03 1.216399999999999981e-01 -3.767510000000000026e-01 4.260099999999999998e-02 -1.341179999999999872e-01 2.637090000000000267e-01 4.881100000000000022e-02 1.316519999999999913e-01 2.437149999999999872e-01
0.000000000000000000e+00 0.000000000000000000e+00 0.000000000000000000e+00 0.000000000000000000e+00 9.999999999999999547e-07 0.000000000000000000e+00 0.000000000000000000e+00 0.000000000000000000e+00 0.000000000000000000e+00 0.000000000000000000e+00 0.000000000000000000e+00 0.000000000000000000e+00
1.717700000000000130e-02 5.182500000000000301e-02 -1.882999999999999952e-02 -2.244700000000000167e-02 -5.239100000000000007e-02 -5.013399999999999801e-02 5.424000000000000002e-03 4.777499999999999802e-02 4.100100000000000272e-02 6.710000000000000469e-04 -4.498699999999999921e-02 2.747899999999999995e-02
3.287899999999999850e-02 1.013339999999999935e-01 -3.780900000000000233e-02 -4.296900000000000025e-02 -1.022720000000000018e-01 -9.714499999999999524e-02 9.865999999999999770e-03 9.328500000000000680e-02 7.963800000000000046e-02 1.126999999999999964e-03 -8.988100000000000256e-02 5.479300000000000143e-02
4.716800000000000159e-02 1.482809999999999961e-01 -5.690599999999999825e-02 -6.153200000000000336e-02 -1.497610000000000052e-01 -1.410260000000000125e-01 1.331099999999999992e-02 1.366410000000000124e-01 1.162269999999999970e-01 1.503999999999999912e-03 -1.341640000000000055e-01 8.171100000000000585e-02
6.277399999999999647e-02 1.968239999999999990e-01 -7.522600000000000120e-02 -8.183799999999999408e-02 -1.985689999999999955e-01 -1.871299999999999908e-01 1.779000000000000026e-02 1.810470000000000135e-01 1.540779999999999927e-01 1.789999999999999925e-03 -1.778980000000000006e-01 1.082859999999999934e-01
-4.064500000000000057e-02 -5.747300000000000325e-02 -2.976300000000000126e-02 4.335599999999999871e-02 3.269500000000000184e-02 -2.523399999999999949e-02 4.372800000000000298e-02 -3.463399999999999812e-02 1.885999999999999829e-02 -4.637999999999999762e-02 5.972199999999999731e-02 3.615800000000000264e-02
-9.134299999999999364e-02 -4.378200000000000147e-02 -3.128800000000000331e-02 8.022600000000000564e-02 1.632000000000000117e-02 -2.420100000000000029e-02 9.986499999999999544e-02 -1.515500000000000007e-02 3.461199999999999694e-02 -8.795500000000000540e-02 4.329500000000000015e-02 2.185700000000000143e-02
-1.421010000000000051e-01 -2.972400000000000042e-02 -3.306200000000000111e-02 1.174390000000000017e-01 -3.339999999999999870e-04 -2.358299999999999980e-02 1.553200000000000136e-01 4.304999999999999799e-03 4.977600000000000080e-02 -1.300910000000000122e-01 2.636200000000000002e-02 6.777000000000000038e-03
-1.947550000000000114e-01 -1.504199999999999982e-02 -3.480199999999999960e-02 1.546740000000000059e-01 -1.793000000000000149e-02 -2.286799999999999944e-02 2.137459999999999916e-01 2.493000000000000077e-02 6.734999999999999321e-02 -1.719189999999999885e-01 9.228999999999999357e-03 -8.415000000000000605e-03
-2.427529999999999966e-01 -1.227000000000000009e-03 -3.603599999999999859e-02 1.898199999999999887e-01 -3.411200000000000343e-02 -2.180999999999999953e-02 2.664949999999999819e-01 4.388700000000000240e-02 8.156800000000000161e-02 -2.118929999999999980e-01 -7.551999999999999685e-03 -2.325800000000000090e-02
3.719599999999999990e-02 -9.069000000000000672e-03 2.977899999999999991e-02 -2.998999999999999930e-03 -2.177000000000000116e-02 2.644799999999999929e-02 -3.187199999999999755e-02 2.712200000000000027e-02 -1.686599999999999905e-02 -2.615000000000000137e-03 4.082999999999999824e-03 -3.947500000000000314e-02
3.376900000000000041e-02 -4.252800000000000330e-02 1.022799999999999924e-02 -2.435599999999999918e-02 1.995500000000000052e-02 8.484000000000000222e-03 4.623000000000000373e-03 4.505999999999999589e-03 -5.180999999999999842e-03 -1.365700000000000074e-02 1.919099999999999973e-02 -1.493399999999999936e-02
2.986000000000000112e-02 -7.616499999999999659e-02 -9.429999999999999147e-03 -4.538999999999999979e-02 6.158500000000000085e-02 -9.322000000000000425e-03 4.148099999999999704e-02 -1.841500000000000081e-02 6.408999999999999767e-03 -2.501799999999999857e-02 3.436899999999999678e-02 1.016500000000000042e-02
2.587199999999999916e-02 -1.086059999999999942e-01 -2.862900000000000167e-02 -6.473600000000000187e-02 1.014459999999999945e-01 -2.697000000000000092e-02 7.631200000000000483e-02 -4.062899999999999845e-02 1.812499999999999875e-02 -3.621800000000000019e-02 4.916000000000000231e-02 3.502199999999999758e-02
2.188700000000000020e-02 -1.404579999999999995e-01 -4.762600000000000167e-02 -8.383799999999999586e-02 1.406399999999999872e-01 -4.439799999999999996e-02 1.105759999999999937e-01 -6.235899999999999777e-02 2.971499999999999836e-02 -4.732600000000000001e-02 6.356100000000000638e-02 5.974100000000000243e-02
-2.525799999999999920e-02 -1.055500000000000015e-02 -6.932399999999999674e-02 1.738299999999999915e-02 2.442700000000000080e-02 -7.399100000000000121e-02 2.290299999999999975e-02 -5.218000000000000416e-03 7.585999999999999688e-02 -1.554299999999999952e-02 -8.628999999999999518e-03 6.830899999999999472e-02
-3.592100000000000154e-02 -4.558600000000000152e-02 -5.907500000000000251e-02 4.164000000000000166e-03 7.141400000000000525e-02 -4.973799999999999749e-02 4.201400000000000273e-02 -2.681700000000000056e-02 6.965499999999999470e-02 -1.157000000000000042e-02 2.108000000000000065e-03 4.302199999999999774e-02
-4.407500000000000306e-02 -7.594499999999999862e-02 -4.797099999999999975e-02 -5.815999999999999989e-03 1.116150000000000059e-01 -2.870599999999999888e-02 5.659399999999999847e-02 -4.764700000000000185e-02 6.087700000000000056e-02 -7.385000000000000071e-03 1.246700000000000065e-02 1.736100000000000143e-02
-5.356999999999999956e-02 -1.086300000000000043e-01 -3.700300000000000117e-02 -1.767200000000000021e-02 1.553309999999999969e-01 -5.523000000000000131e-03 7.367200000000000137e-02 -6.858000000000000207e-02 5.336699999999999777e-02 -3.079999999999999839e-03 2.258699999999999944e-02 -8.633999999999999314e-03
-6.282100000000000184e-02 -1.409719999999999862e-01 -2.592900000000000066e-02 -2.952899999999999969e-02 1.982700000000000018e-01 1.751600000000000032e-02 9.046099999999999974e-02 -8.918700000000000239e-02 4.563299999999999995e-02 1.338999999999999913e-03 3.252399999999999736e-02 -3.474499999999999811e-02
1.602400000000000005e-02 7.299999999999999632e-04 -1.922899999999999957e-02 2.311999999999999819e-03 1.322000000000000041e-03 -9.922999999999999529e-03 -4.091299999999999798e-02 -1.943500000000000089e-02 1.360199999999999951e-02 2.270399999999999849e-02 1.838899999999999910e-02 1.532700000000000035e-02
6.407000000000000368e-03 -1.761000000000000065e-02 1.513899999999999968e-02 1.066100000000000034e-02 1.642599999999999963e-02 1.730900000000000147e-02 -5.057600000000000290e-02 -1.490700000000000011e-02 -1.379000000000000017e-02 3.240699999999999831e-02 1.753599999999999950e-02 -1.736700000000000049e-02
-2.130000000000000003e-04 -3.237400000000000000e-02 4.599400000000000016e-02 1.662500000000000089e-02 2.869299999999999976e-02 4.290299999999999669e-02 -5.870199999999999724e-02 -1.170299999999999986e-02 -3.949400000000000133e-02 4.223400000000000071e-02 1.642700000000000063e-02 -4.967400000000000287e-02
-8.040999999999999537e-03 -4.855500000000000094e-02 7.817300000000000637e-02 2.371600000000000097e-02 4.184800000000000325e-02 6.911100000000000576e-02 -6.711699999999999611e-02 -8.134000000000000605e-03 -6.579300000000000426e-02 5.190199999999999675e-02 1.534499999999999927e-02 -8.220199999999999729e-02
-1.625499999999999862e-02 -6.495499999999999885e-02 1.103719999999999979e-01 3.114199999999999954e-02 5.529900000000000093e-02 9.512500000000000122e-02 -7.578300000000000314e-02 -4.093000000000000284e-03 -9.191699999999999871e-02 6.150499999999999717e-02 1.413099999999999946e-02 -1.144580000000000042e-01
-9.999999999999999547e-07 0.000000000000000000e+00 9.999999999999999547e-07 9.999999999999999547e-07 -3.000000000000000076e-06 1.999999999999999909e-06 -9.999999999999999547e-07 1.999999999999999909e-06 -9.999999999999999547e-07 0.000000000000000000e+00 0.000000000000000000e+00 0.000000000000000000e+00
-9.801999999999999949e-03 -4.031599999999999767e-02 2.758000000000000035e-03 8.916000000000000314e-03 3.906099999999999850e-02 5.060000000000000478e-04 2.145899999999999891e-02 -4.809599999999999986e-02 -7.479999999999999670e-04 -2.028500000000000095e-02 4.888100000000000084e-02 -2.413999999999999913e-03
-1.968900000000000164e-02 -8.080400000000000083e-02 5.413000000000000277e-03 1.779000000000000026e-02 7.842399999999999372e-02 1.041999999999999958e-03 4.278499999999999664e-02 -9.594700000000000450e-02 -1.557000000000000007e-03 -4.071899999999999825e-02 9.804799999999999627e-02 -4.852999999999999675e-03
-2.928499999999999853e-02 -1.214630000000000015e-01 8.141999999999999932e-03 2.648899999999999866e-02 1.178949999999999998e-01 1.569000000000000082e-03 6.437600000000000267e-02 -1.437819999999999931e-01 -2.324000000000000111e-03 -6.104300000000000004e-02 1.469479999999999953e-01 -7.281000000000000145e-03
-3.893800000000000039e-02 -1.609190000000000065e-01 1.077000000000000006e-02 3.514500000000000263e-02 1.562080000000000135e-01 2.102000000000000136e-03 8.526699999999999557e-02 -1.904879999999999907e-01 -3.098000000000000059e-03 -8.117000000000000604e-02 1.951859999999999984e-01 -9.667999999999999511e-03
6.440000000000000412e-03 -4.913200000000000206e-02 2.139900000000000135e-02 -4.872999999999999728e-03 3.970499999999999724e-02 4.794699999999999657e-02 1.108000000000000044e-03 -5.182799999999999907e-02 -1.673099999999999934e-02 -2.696000000000000046e-03 6.248000000000000081e-02 -5.285499999999999921e-02
-2.229000000000000078e-02 -6.321899999999999742e-02 6.822499999999999398e-02 1.351199999999999971e-02 5.411400000000000238e-02 7.913000000000000589e-02 1.823599999999999874e-02 -5.870999999999999830e-02 -5.269700000000000079e-02 -1.038099999999999960e-02 6.959600000000000508e-02 -9.381899999999999962e-02
-4.882299999999999834e-02 -7.615299999999999847e-02 1.128679999999999961e-01 3.111099999999999977e-02 6.692099999999999438e-02 1.095880000000000049e-01 3.519699999999999912e-02 -6.604599999999999360e-02 -8.722900000000000098e-02 -1.785499999999999934e-02 7.649200000000000443e-02 -1.355149999999999966e-01
-7.656699999999999617e-02 -8.937900000000000011e-02 1.583080000000000043e-01 4.930699999999999666e-02 8.037099999999999800e-02 1.401189999999999936e-01 5.229000000000000314e-02 -7.283799999999999997e-02 -1.222939999999999999e-01 -2.535099999999999854e-02 8.312200000000000144e-02 -1.766210000000000002e-01
-1.045770000000000033e-01 -1.024599999999999955e-01 2.037440000000000084e-01 6.742299999999999682e-02 9.362800000000000289e-02 1.702069999999999972e-01 6.934600000000000486e-02 -7.936200000000000199e-02 -1.569720000000000004e-01 -3.270699999999999996e-02 8.944199999999999373e-02 -2.172310000000000074e-01
5.296000000000000360e-03 6.649000000000000396e-03 5.118400000000000033e-02 1.013999999999999971e-02 6.419999999999999925e-04 4.999800000000000078e-02 -1.644999999999999934e-02 -5.860000000000000408e-04 -5.006000000000000033e-02 8.540000000000000499e-04 -6.517000000000000223e-03 -5.080799999999999900e-02
-6.734000000000000402e-03 -2.417100000000000151e-02 4.108400000000000246e-02 -8.597999999999999740e-03 5.249399999999999900e-02 4.734100000000000114e-02 3.518999999999999993e-03 -4.903500000000000220e-02 -3.976400000000000073e-02 9.865999999999999770e-03 2.063500000000000056e-02 -4.807299999999999768e-02
-1.568599999999999856e-02 -5.263199999999999823e-02 3.276500000000000246e-02 -2.363300000000000123e-02 9.696799999999999864e-02 4.393999999999999989e-02 1.951599999999999863e-02 -9.170300000000000673e-02 -3.105399999999999827e-02 1.878000000000000155e-02 4.747400000000000231e-02 -4.521300000000000319e-02
-2.564299999999999913e-02 -8.157799999999999774e-02 2.373499999999999915e-02 -3.962799999999999656e-02 1.432579999999999965e-01 4.050000000000000128e-02 3.663000000000000284e-02 -1.357869999999999910e-01 -2.163899999999999851e-02 2.778100000000000014e-02 7.409599999999999520e-02 -4.224599999999999883e-02
-3.582699999999999774e-02 -1.101950000000000013e-01 1.450899999999999933e-02 -5.579200000000000131e-02 1.894139999999999990e-01 3.698400000000000298e-02 5.390000000000000346e-02 -1.797110000000000096e-01 -1.195000000000000055e-02 3.673599999999999782e-02 1.003529999999999978e-01 -3.916000000000000036e-02
6.599999999999999964e-04 -2.889399999999999955e-02 -2.350999999999999791e-03 9.330000000000000186e-04 1.755000000000000050e-03 -5.351999999999999987e-03 3.697999999999999898e-03 2.202300000000000091e-02 1.411699999999999934e-02 -5.360000000000000181e-03 4.904000000000000373e-03 -6.552999999999999797e-03
-2.569400000000000156e-02 -2.788900000000000060e-02 1.638500000000000026e-02 1.640300000000000091e-02 5.098000000000000101e-03 -3.210000000000000180e-03 6.908000000000000078e-03 4.244599999999999762e-02 4.710999999999999910e-03 1.379999999999999933e-04 -1.764200000000000143e-02 -1.728800000000000128e-02
-4.637700000000000156e-02 -2.531900000000000123e-02 3.202300000000000285e-02 2.905100000000000043e-02 5.720000000000000258e-03 2.400000000000000061e-05 1.029799999999999986e-02 5.986999999999999961e-02 -4.011999999999999941e-03 6.092000000000000193e-03 -4.022200000000000081e-02 -2.792000000000000037e-02
-6.979200000000000681e-02 -2.349400000000000099e-02 4.907799999999999663e-02 4.324200000000000266e-02 7.758000000000000139e-03 2.677999999999999825e-03 1.366700000000000033e-02 7.869299999999999906e-02 -1.303499999999999971e-02 1.208000000000000046e-02 -6.297800000000000620e-02 -3.861900000000000055e-02
-9.303100000000000258e-02 -2.169400000000000148e-02 6.598700000000000399e-02 5.726200000000000040e-02 9.863999999999999505e-03 5.263999999999999582e-03 1.690799999999999942e-02 9.732699999999999685e-02 -2.195300000000000029e-02 1.810099999999999903e-02 -8.554599999999999704e-02 -4.918199999999999655e-02
2.317400000000000015e-02 -1.600400000000000086e-02 -1.805999999999999966e-02 -3.639099999999999974e-02 -1.005799999999999923e-02 9.166000000000000536e-03 -4.780100000000000321e-02 1.399599999999999976e-02 2.232400000000000009e-02 6.078100000000000169e-02 1.207100000000000013e-02 -1.346100000000000074e-02
2.204199999999999909e-02 -5.875299999999999967e-02 -5.071900000000000019e-02 -3.115899999999999920e-02 3.560200000000000170e-02 -1.199799999999999998e-02 -6.189200000000000257e-02 -8.614999999999999394e-03 5.277699999999999753e-02 6.923200000000000187e-02 3.231200000000000044e-02 9.204000000000000375e-03
2.204800000000000162e-02 -9.488099999999999312e-02 -7.926500000000000212e-02 -2.824300000000000074e-02 7.338999999999999690e-02 -3.116899999999999879e-02 -7.166500000000000647e-02 -3.054099999999999870e-02 7.887600000000000167e-02 7.741900000000000170e-02 5.201900000000000274e-02 3.148800000000000210e-02
2.132099999999999967e-02 -1.350989999999999969e-01 -1.103579999999999978e-01 -2.371799999999999950e-02 1.163590000000000041e-01 -5.152899999999999842e-02 -8.411200000000000621e-02 -5.291200000000000070e-02 1.074969999999999953e-01 8.569100000000000328e-02 7.177000000000000046e-02 5.399400000000000033e-02
2.067700000000000093e-02 -1.730220000000000091e-01 -1.398749999999999993e-01 -1.966299999999999992e-02 1.568460000000000132e-01 -7.114900000000000391e-02 -9.539599999999999469e-02 -7.464800000000000602e-02 1.347569999999999879e-01 9.358600000000000252e-02 9.107500000000000318e-02 7.597399999999999987e-02
