2.746546264000000015e+00 0.000000000000000000e+00 0.000000000000000000e+00 0.000000000000000000e+00 2.746546264000000015e+00 0.000000000000000000e+00 0.000000000000000000e+00 0.000000000000000000e+00 2.746546264000000015e+00
2.746546264000000015e+00 0.000000000000000000e+00 0.000000000000000000e+00 0.000000000000000000e+00 2.746546264000000015e+00 0.000000000000000000e+00 0.000000000000000000e+00 0.000000000000000000e+00 2.746546264000000015e+00
2.746546264000000015e+00 0.000000000000000000e+00 0.000000000000000000e+00 0.000000000000000000e+00 2.746546264000000015e+00 0.000000000000000000e+00 0.000000000000000000e+00 0.000000000000000000e+00 2.746546264000000015e+00
2.746546264000000015e+00 0.000000000000000000e+00 0.000000000000000000e+00 0.000000000000000000e+00 2.746546264000000015e+00 0.000000000000000000e+00 0.000000000000000000e+00 0.000000000000000000e+00 2.746546264000000015e+00
2.746546264000000015e+00 0.000000000000000000e+00 0.000000000000000000e+00 0.000000000000000000e+00 2.746546264000000015e+00 0.000000000000000000e+00 0.000000000000000000e+00 0.000000000000000000e+00 2.746546264000000015e+00
2.692828367999999806e+00 0.000000000000000000e+00 0.000000000000000000e+00 -3.250920999999999672e-02 2.682727700000000048e+00 0.000000000000000000e+00 -8.173479699999999792e-02 -9.002770000000000000e-04 2.772604004999999816e+00
2.692828367999999806e+00 0.000000000000000000e+00 0.000000000000000000e+00 -3.250920999999999672e-02 2.682727700000000048e+00 0.000000000000000000e+00 -8.173479699999999792e-02 -9.002770000000000000e-04 2.772604004999999816e+00
2.692828367999999806e+00 0.000000000000000000e+00 0.000000000000000000e+00 -3.250920999999999672e-02 2.682727700000000048e+00 0.000000000000000000e+00 -8.173479699999999792e-02 -9.002770000000000000e-04 2.772604004999999816e+00
2.692828367999999806e+00 0.000000000000000000e+00 0.000000000000000000e+00 -3.250920999999999672e-02 2.682727700000000048e+00 0.000000000000000000e+00 -8.173479699999999792e-02 -9.002770000000000000e-04 2.772604004999999816e+00
2.692828367999999806e+00 0.000000000000000000e+00 0.000000000000000000e+00 -3.250920999999999672e-02 2.682727700000000048e+00 0.000000000000000000e+00 -8.173479699999999792e-02 -9.002770000000000000e-04 2.772604004999999816e+00
2.673693109999999873e+00 0.000000000000000000e+00 0.000000000000000000e+00 -7.598874699999999538e-02 2.667280239000000108e+00 0.000000000000000000e+00 -4.163712800000000241e-02 -7.356910999999999312e-02 2.685995582999999964e+00
2.673693109999999873e+00 0.000000000000000000e+00 0.000000000000000000e+00 -7.598874699999999538e-02 2.667280239000000108e+00 0.000000000000000000e+00 -4.163712800000000241e-02 -7.356910999999999312e-02 2.685995582999999964e+00
2.673693109999999873e+00 0.000000000000000000e+00 0.000000000000000000e+00 -7.598874699999999538e-02 2.667280239000000108e+00 0.000000000000000000e+00 -4.163712800000000241e-02 -7.356910999999999312e-02 2.685995582999999964e+00
2.673693109999999873e+00 0.000000000000000000e+00 0.000000000000000000e+00 -7.598874699999999538e-02 2.667280239000000108e+00 0.000000000000000000e+00 -4.163712800000000241e-02 -7.356910999999999312e-02 2.685995582999999964e+00
2.673693109999999873e+00 0.000000000000000000e+00 0.000000000000000000e+00 -7.598874699999999538e-02 2.667280239000000108e+00 0.000000000000000000e+00 -4.163712800000000241e-02 -7.356910999999999312e-02 2.685995582999999964e+00
2.731585305999999935e+00 0.000000000000000000e+00 0.000000000000000000e+00 3.040892800000000173e-02 2.792864021000000196e+00 0.000000000000000000e+00 -5.949024800000000252e-02 -3.843166399999999733e-02 2.692841125999999807e+00
2.731585305999999935e+00 0.000000000000000000e+00 0.000000000000000000e+00 3.040892800000000173e-02 2.792864021000000196e+00 0.000000000000000000e+00 -5.949024800000000252e-02 -3.843166399999999733e-02 2.692841125999999807e+00
2.731585305999999935e+00 0.000000000000000000e+00 0.000000000000000000e+00 3.040892800000000173e-02 2.792864021000000196e+00 0.000000000000000000e+00 -5.949024800000000252e-02 -3.843166399999999733e-02 2.692841125999999807e+00
2.731585305999999935e+00 0.000000000000000000e+00 0.000000000000000000e+00 3.040892800000000173e-02 2.792864021000000196e+00 0.000000000000000000e+00 -5.949024800000000252e-02 -3.843166399999999733e-02 2.692841125999999807e+00
2.731585305999999935e+00 0.000000000000000000e+00 0.000000000000000000e+00 3.040892800000000173e-02 2.792864021000000196e+00 0.000000000000000000e+00 -5.949024800000000252e-02 -3.843166399999999733e-02 2.692841125999999807e+00
2.776044006999999869e+00 0.000000000000000000e+00 0.000000000000000000e+00 8.585001000000000090e-03 2.712829605000000033e+00 0.000000000000000000e+00 4.396840700000000102e-02 6.974500000000000393e-05 2.761889370000000010e+00
2.776044006999999869e+00 0.000000000000000000e+00 0.000000000000000000e+00 8.585001000000000090e-03 2.712829605000000033e+00 0.000000000000000000e+00 4.396840700000000102e-02 6.974500000000000393e-05 2.761889370000000010e+00
2.776044006999999869e+00 0.000000000000000000e+00 0.000000000000000000e+00 8.585001000000000090e-03 2.712829605000000033e+00 0.000000000000000000e+00 4.396840700000000102e-02 6.974500000000000393e-05 2.761889370000000010e+00
2.776044006999999869e+00 0.000000000000000000e+00 0.000000000000000000e+00 8.585001000000000090e-03 2.712829605000000033e+00 0.000000000000000000e+00 4.396840700000000102e-02 6.974500000000000393e-05 2.761889370000000010e+00
2.776044006999999869e+00 0.000000000000000000e+00 0.000000000000000000e+00 8.585001000000000090e-03 2.712829605000000033e+00 0.000000000000000000e+00 4.396840700000000102e-02 6.974500000000000393e-05 2.761889370000000010e+00
2.790626826000000005e+00 0.000000000000000000e+00 0.000000000000000000e+00 4.621442399999999701e-02 2.824619513000000026e+00 0.000000000000000000e+00 -6.141019300000000181e-02 3.174334999999999917e-03 2.806177196000000151e+00
2.790626826000000005e+00 0.000000000000000000e+00 0.000000000000000000e+00 4.621442399999999701e-02 2.824619513000000026e+00 0.000000000000000000e+00 -6.141019300000000181e-02 3.174334999999999917e-03 2.806177196000000151e+00
2.790626826000000005e+00 0.000000000000000000e+00 0.000000000000000000e+00 4.621442399999999701e-02 2.824619513000000026e+00 0.000000000000000000e+00 -6.141019300000000181e-02 3.174334999999999917e-03 2.806177196000000151e+00
2.790626826000000005e+00 0.000000000000000000e+00 0.000000000000000000e+00 4.621442399999999701e-02 2.824619513000000026e+00 0.000000000000000000e+00 -6.141019300000000181e-02 3.174334999999999917e-03 2.806177196000000151e+00
2.790626826000000005e+00 0.000000000000000000e+00 0.000000000000000000e+00 4.621442399999999701e-02 2.824619513000000026e+00 0.000000000000000000e+00 -6.141019300000000181e-02 3.174334999999999917e-03 2.806177196000000151e+00
2.795019869999999962e+00 0.000000000000000000e+00 0.000000000000000000e+00 4.391628999999999672e-02 2.814271595000000126e+00 0.000000000000000000e+00 -3.037453799999999954e-02 7.098647199999999491e-02 2.735674556999999840e+00
2.795019869999999962e+00 0.000000000000000000e+00 0.000000000000000000e+00 4.391628999999999672e-02 2.814271595000000126e+00 0.000000000000000000e+00 -3.037453799999999954e-02 7.098647199999999491e-02 2.735674556999999840e+00
2.795019869999999962e+00 0.000000000000000000e+00 0.000000000000000000e+00 4.391628999999999672e-02 2.814271595000000126e+00 0.000000000000000000e+00 -3.037453799999999954e-02 7.098647199999999491e-02 2.735674556999999840e+00
2.795019869999999962e+00 0.000000000000000000e+00 0.000000000000000000e+00 4.391628999999999672e-02 2.814271595000000126e+00 0.000000000000000000e+00 -3.037453799999999954e-02 7.098647199999999491e-02 2.735674556999999840e+00
2.795019869999999962e+00 0.000000000000000000e+00 0.000000000000000000e+00 4.391628999999999672e-02 2.814271595000000126e+00 0.000000000000000000e+00 -3.037453799999999954e-02 7.098647199999999491e-02 2.735674556999999840e+00
2.801333667000000194e+00 0.000000000000000000e+00 0.000000000000000000e+00 -6.228947399999999746e-02 2.723051798999999829e+00 0.000000000000000000e+00 2.729398999999999974e-03 -7.840683299999999523e-02 2.769240270000000059e+00
2.801333667000000194e+00 0.000000000000000000e+00 0.000000000000000000e+00 -6.228947399999999746e-02 2.723051798999999829e+00 0.000000000000000000e+00 2.729398999999999974e-03 -7.840683299999999523e-02 2.769240270000000059e+00
2.801333667000000194e+00 0.000000000000000000e+00 0.000000000000000000e+00 -6.228947399999999746e-02 2.723051798999999829e+00 0.000000000000000000e+00 2.729398999999999974e-03 -7.840683299999999523e-02 2.769240270000000059e+00
2.801333667000000194e+00 0.000000000000000000e+00 0.000000000000000000e+00 -6.228947399999999746e-02 2.723051798999999829e+00 0.000000000000000000e+00 2.729398999999999974e-03 -7.840683299999999523e-02 2.769240270000000059e+00
2.801333667000000194e+00 0.000000000000000000e+00 0.000000000000000000e+00 -6.228947399999999746e-02 2.723051798999999829e+00 0.000000000000000000e+00 2.729398999999999974e-03 -7.840683299999999523e-02 2.769240270000000059e+00
2.710599510000000212e+00 0.000000000000000000e+00 0.000000000000000000e+00 -4.817292699999999733e-02 2.746724670999999951e+00 0.000000000000000000e+00 -6.824186899999999667e-02 -6.746810899999999833e-02 2.679160017000000060e+00
2.710599510000000212e+00 0.000000000000000000e+00 0.000000000000000000e+00 -4.817292699999999733e-02 2.746724670999999951e+00 0.000000000000000000e+00 -6.824186899999999667e-02 -6.746810899999999833e-02 2.679160017000000060e+00
2.710599510000000212e+00 0.000000000000000000e+00 0.000000000000000000e+00 -4.817292699999999733e-02 2.746724670999999951e+00 0.000000000000000000e+00 -6.824186899999999667e-02 -6.746810899999999833e-02 2.679160017000000060e+00
2.710599510000000212e+00 0.000000000000000000e+00 0.000000000000000000e+00 -4.817292699999999733e-02 2.746724670999999951e+00 0.000000000000000000e+00 -6.824186899999999667e-02 -6.746810899999999833e-02 2.679160017000000060e+00
2.710599510000000212e+00 0.000000000000000000e+00 0.000000000000000000e+00 -4.817292699999999733e-02 2.746724670999999951e+00 0.000000000000000000e+00 -6.824186899999999667e-02 -6.746810899999999833e-02 2.679160017000000060e+00
2.732408836999999924e+00 0.000000000000000000e+00 0.000000000000000000e+00 -2.221977500000000064e-02 2.707326790000000205e+00 0.000000000000000000e+00 -3.408759100000000042e-02 -1.067610999999999994e-03 2.744700534000000136e+00
2.732408836999999924e+00 0.000000000000000000e+00 0.000000000000000000e+00 -2.221977500000000064e-02 2.707326790000000205e+00 0.000000000000000000e+00 -3.408759100000000042e-02 -1.067610999999999994e-03 2.744700534000000136e+00
2.732408836999999924e+00 0.000000000000000000e+00 0.000000000000000000e+00 -2.221977500000000064e-02 2.707326790000000205e+00 0.000000000000000000e+00 -3.408759100000000042e-02 -1.067610999999999994e-03 2.744700534000000136e+00
2.732408836999999924e+00 0.000000000000000000e+00 0.000000000000000000e+00 -2.221977500000000064e-02 2.707326790000000205e+00 0.000000000000000000e+00 -3.408759100000000042e-02 -1.067610999999999994e-03 2.744700534000000136e+00
2.732408836999999924e+00 0.000000000000000000e+00 0.000000000000000000e+00 -2.221977500000000064e-02 2.707326790000000205e+00 0.000000000000000000e+00 -3.408759100000000042e-02 -1.067610999999999994e-03 2.744700534000000136e+00
2.831490994000000150e+00 0.000000000000000000e+00 0.000000000000000000e+00 0.000000000000000000e+00 2.831490994000000150e+00 0.000000000000000000e+00 0.000000000000000000e+00 0.000000000000000000e+00 2.831490994000000150e+00
2.831490994000000150e+00 0.000000000000000000e+00 0.000000000000000000e+00 0.000000000000000000e+00 2.831490994000000150e+00 0.000000000000000000e+00 0.000000000000000000e+00 0.000000000000000000e+00 2.831490994000000150e+00
2.831490994000000150e+00 0.000000000000000000e+00 0.000000000000000000e+00 0.000000000000000000e+00 2.831490994000000150e+00 0.000000000000000000e+00 0.000000000000000000e+00 0.000000000000000000e+00 2.831490994000000150e+00
2.831490994000000150e+00 0.000000000000000000e+00 0.000000000000000000e+00 0.000000000000000000e+00 2.831490994000000150e+00 0.000000000000000000e+00 0.000000000000000000e+00 0.000000000000000000e+00 2.831490994000000150e+00
2.831490994000000150e+00 0.000000000000000000e+00 0.000000000000000000e+00 0.000000000000000000e+00 2.831490994000000150e+00 0.000000000000000000e+00 0.000000000000000000e+00 0.000000000000000000e+00 2.831490994000000150e+00
2.822341359999999799e+00 0.000000000000000000e+00 0.000000000000000000e+00 3.576901799999999965e-02 2.840292954000000147e+00 0.000000000000000000e+00 -5.305126999999999760e-02 5.481134199999999901e-02 2.788134739000000195e+00
2.822341359999999799e+00 0.000000000000000000e+00 0.000000000000000000e+00 3.576901799999999965e-02 2.840292954000000147e+00 0.000000000000000000e+00 -5.305126999999999760e-02 5.481134199999999901e-02 2.788134739000000195e+00
2.822341359999999799e+00 0.000000000000000000e+00 0.000000000000000000e+00 3.576901799999999965e-02 2.840292954000000147e+00 0.000000000000000000e+00 -5.305126999999999760e-02 5.481134199999999901e-02 2.788134739000000195e+00
2.822341359999999799e+00 0.000000000000000000e+00 0.000000000000000000e+00 3.576901799999999965e-02 2.840292954000000147e+00 0.000000000000000000e+00 -5.305126999999999760e-02 5.481134199999999901e-02 2.788134739000000195e+00
2.822341359999999799e+00 0.000000000000000000e+00 0.000000000000000000e+00 3.576901799999999965e-02 2.840292954000000147e+00 0.000000000000000000e+00 -5.305126999999999760e-02 5.481134199999999901e-02 2.788134739000000195e+00
2.911289008999999872e+00 0.000000000000000000e+00 0.000000000000000000e+00 7.931575999999999904e-02 2.878672724999999932e+00 0.000000000000000000e+00 8.072678099999999746e-02 -4.780040000000000157e-03 2.783295460999999804e+00
2.911289008999999872e+00 0.000000000000000000e+00 0.000000000000000000e+00 7.931575999999999904e-02 2.878672724999999932e+00 0.000000000000000000e+00 8.072678099999999746e-02 -4.780040000000000157e-03 2.783295460999999804e+00
2.911289008999999872e+00 0.000000000000000000e+00 0.000000000000000000e+00 7.931575999999999904e-02 2.878672724999999932e+00 0.000000000000000000e+00 8.072678099999999746e-02 -4.780040000000000157e-03 2.783295460999999804e+00
2.911289008999999872e+00 0.000000000000000000e+00 0.000000000000000000e+00 7.931575999999999904e-02 2.878672724999999932e+00 0.000000000000000000e+00 8.072678099999999746e-02 -4.780040000000000157e-03 2.783295460999999804e+00
2.911289008999999872e+00 0.000000000000000000e+00 0.000000000000000000e+00 7.931575999999999904e-02 2.878672724999999932e+00 0.000000000000000000e+00 8.072678099999999746e-02 -4.780040000000000157e-03 2.783295460999999804e+00
2.746973603999999902e+00 0.000000000000000000e+00 0.000000000000000000e+00 -5.412651599999999952e-02 2.778217385000000039e+00 0.000000000000000000e+00 -4.134055799999999947e-02 1.331832999999999975e-02 2.847212829000000056e+00
2.746973603999999902e+00 0.000000000000000000e+00 0.000000000000000000e+00 -5.412651599999999952e-02 2.778217385000000039e+00 0.000000000000000000e+00 -4.134055799999999947e-02 1.331832999999999975e-02 2.847212829000000056e+00
2.746973603999999902e+00 0.000000000000000000e+00 0.000000000000000000e+00 -5.412651599999999952e-02 2.778217385000000039e+00 0.000000000000000000e+00 -4.134055799999999947e-02 1.331832999999999975e-02 2.847212829000000056e+00
2.746973603999999902e+00 0.000000000000000000e+00 0.000000000000000000e+00 -5.412651599999999952e-02 2.778217385000000039e+00 0.000000000000000000e+00 -4.134055799999999947e-02 1.331832999999999975e-02 2.847212829000000056e+00
2.746973603999999902e+00 0.000000000000000000e+00 0.000000000000000000e+00 -5.412651599999999952e-02 2.778217385000000039e+00 0.000000000000000000e+00 -4.134055799999999947e-02 1.331832999999999975e-02 2.847212829000000056e+00
2.747697798999999996e+00 0.000000000000000000e+00 0.000000000000000000e+00 -5.380000100000000007e-02 2.891941257000000043e+00 0.000000000000000000e+00 1.827547599999999883e-02 8.513909999999999534e-03 2.828125432000000217e+00
2.747697798999999996e+00 0.000000000000000000e+00 0.000000000000000000e+00 -5.380000100000000007e-02 2.891941257000000043e+00 0.000000000000000000e+00 1.827547599999999883e-02 8.513909999999999534e-03 2.828125432000000217e+00
2.747697798999999996e+00 0.000000000000000000e+00 0.000000000000000000e+00 -5.380000100000000007e-02 2.891941257000000043e+00 0.000000000000000000e+00 1.827547599999999883e-02 8.513909999999999534e-03 2.828125432000000217e+00
2.747697798999999996e+00 0.000000000000000000e+00 0.000000000000000000e+00 -5.380000100000000007e-02 2.891941257000000043e+00 0.000000000000000000e+00 1.827547599999999883e-02 8.513909999999999534e-03 2.828125432000000217e+00
2.747697798999999996e+00 0.000000000000000000e+00 0.000000000000000000e+00 -5.380000100000000007e-02 2.891941257000000043e+00 0.000000000000000000e+00 1.827547599999999883e-02 8.513909999999999534e-03 2.828125432000000217e+00
2.857022638000000114e+00 0.000000000000000000e+00 0.000000000000000000e+00 -1.107662899999999929e-02 2.751612654000000102e+00 0.000000000000000000e+00 4.287027699999999830e-02 -7.452242800000000167e-02 2.850627547000000206e+00
2.857022638000000114e+00 0.000000000000000000e+00 0.000000000000000000e+00 -1.107662899999999929e-02 2.751612654000000102e+00 0.000000000000000000e+00 4.287027699999999830e-02 -7.452242800000000167e-02 2.850627547000000206e+00
2.857022638000000114e+00 0.000000000000000000e+00 0.000000000000000000e+00 -1.107662899999999929e-02 2.751612654000000102e+00 0.000000000000000000e+00 4.287027699999999830e-02 -7.452242800000000167e-02 2.850627547000000206e+00
2.857022638000000114e+00 0.000000000000000000e+00 0.000000000000000000e+00 -1.107662899999999929e-02 2.751612654000000102e+00 0.000000000000000000e+00 4.287027699999999830e-02 -7.452242800000000167e-02 2.850627547000000206e+00
2.857022638000000114e+00 0.000000000000000000e+00 0.000000000000000000e+00 -1.107662899999999929e-02 2.751612654000000102e+00 0.000000000000000000e+00 4.287027699999999830e-02 -7.452242800000000167e-02 2.850627547000000206e+00
2.803102480000000174e+00 0.000000000000000000e+00 0.000000000000000000e+00 8.358534600000000481e-02 2.902535472999999921e+00 0.000000000000000000e+00 4.250464999999999799e-02 7.410037899999999400e-02 2.829158683999999813e+00
2.803102480000000174e+00 0.000000000000000000e+00 0.000000000000000000e+00 8.358534600000000481e-02 2.902535472999999921e+00 0.000000000000000000e+00 4.250464999999999799e-02 7.410037899999999400e-02 2.829158683999999813e+00
2.803102480000000174e+00 0.000000000000000000e+00 0.000000000000000000e+00 8.358534600000000481e-02 2.902535472999999921e+00 0.000000000000000000e+00 4.250464999999999799e-02 7.410037899999999400e-02 2.829158683999999813e+00
2.803102480000000174e+00 0.000000000000000000e+00 0.000000000000000000e+00 8.358534600000000481e-02 2.902535472999999921e+00 0.000000000000000000e+00 4.250464999999999799e-02 7.410037899999999400e-02 2.829158683999999813e+00
2.803102480000000174e+00 0.000000000000000000e+00 0.000000000000000000e+00 8.358534600000000481e-02 2.902535472999999921e+00 0.000000000000000000e+00 4.250464999999999799e-02 7.410037899999999400e-02 2.829158683999999813e+00
2.753263486999999898e+00 0.000000000000000000e+00 0.000000000000000000e+00 6.205652700000000022e-02 2.909750865999999991e+00 0.000000000000000000e+00 1.267031400000000023e-02 -6.079310000000000269e-02 2.794710723000000119e+00
2.753263486999999898e+00 0.000000000000000000e+00 0.000000000000000000e+00 6.205652700000000022e-02 2.909750865999999991e+00 0.000000000000000000e+00 1.267031400000000023e-02 -6.079310000000000269e-02 2.794710723000000119e+00
2.753263486999999898e+00 0.000000000000000000e+00 0.000000000000000000e+00 6.205652700000000022e-02 2.909750865999999991e+00 0.000000000000000000e+00 1.267031400000000023e-02 -6.079310000000000269e-02 2.794710723000000119e+00
2.753263486999999898e+00 0.000000000000000000e+00 0.000000000000000000e+00 6.205652700000000022e-02 2.909750865999999991e+00 0.000000000000000000e+00 1.267031400000000023e-02 -6.079310000000000269e-02 2.794710723000000119e+00
2.753263486999999898e+00 0.000000000000000000e+00 0.000000000000000000e+00 6.205652700000000022e-02 2.909750865999999991e+00 0.000000000000000000e+00 1.267031400000000023e-02 -6.079310000000000269e-02 2.794710723000000119e+00
2.884265373999999937e+00 0.000000000000000000e+00 0.000000000000000000e+00 -6.518974000000000296e-03 2.844694979999999873e+00 0.000000000000000000e+00 6.539532300000000520e-02 6.554269999999999541e-02 2.754096753999999869e+00
2.884265373999999937e+00 0.000000000000000000e+00 0.000000000000000000e+00 -6.518974000000000296e-03 2.844694979999999873e+00 0.000000000000000000e+00 6.539532300000000520e-02 6.554269999999999541e-02 2.754096753999999869e+00
2.884265373999999937e+00 0.000000000000000000e+00 0.000000000000000000e+00 -6.518974000000000296e-03 2.844694979999999873e+00 0.000000000000000000e+00 6.539532300000000520e-02 6.554269999999999541e-02 2.754096753999999869e+00
2.884265373999999937e+00 0.000000000000000000e+00 0.000000000000000000e+00 -6.518974000000000296e-03 2.844694979999999873e+00 0.000000000000000000e+00 6.539532300000000520e-02 6.554269999999999541e-02 2.754096753999999869e+00
2.884265373999999937e+00 0.000000000000000000e+00 0.000000000000000000e+00 -6.518974000000000296e-03 2.844694979999999873e+00 0.000000000000000000e+00 6.539532300000000520e-02 6.554269999999999541e-02 2.754096753999999869e+00
2.916018862000000045e+00 0.000000000000000000e+00 0.000000000000000000e+00 1.785481699999999852e-02 2.748455417000000178e+00 0.000000000000000000e+00 2.503216800000000047e-02 8.002042299999999331e-02 2.756365163999999979e+00
2.916018862000000045e+00 0.000000000000000000e+00 0.000000000000000000e+00 1.785481699999999852e-02 2.748455417000000178e+00 0.000000000000000000e+00 2.503216800000000047e-02 8.002042299999999331e-02 2.756365163999999979e+00
2.916018862000000045e+00 0.000000000000000000e+00 0.000000000000000000e+00 1.785481699999999852e-02 2.748455417000000178e+00 0.000000000000000000e+00 2.503216800000000047e-02 8.002042299999999331e-02 2.756365163999999979e+00
2.916018862000000045e+00 0.000000000000000000e+00 0.000000000000000000e+00 1.785481699999999852e-02 2.748455417000000178e+00 0.000000000000000000e+00 2.503216800000000047e-02 8.002042299999999331e-02 2.756365163999999979e+00
2.916018862000000045e+00 0.000000000000000000e+00 0.000000000000000000e+00 1.785481699999999852e-02 2.748455417000000178e+00 0.000000000000000000e+00 2.503216800000000047e-02 8.002042299999999331e-02 2.756365163999999979e+00
2.916435723000000202e+00 0.000000000000000000e+00 0.000000000000000000e+00 0.000000000000000000e+00 2.916435723000000202e+00 0.000000000000000000e+00 0.000000000000000000e+00 0.000000000000000000e+00 2.916435723000000202e+00
2.916435723000000202e+00 0.000000000000000000e+00 0.000000000000000000e+00 0.000000000000000000e+00 2.916435723000000202e+00 0.000000000000000000e+00 0.000000000000000000e+00 0.000000000000000000e+00 2.916435723000000202e+00
2.916435723000000202e+00 0.000000000000000000e+00 0.000000000000000000e+00 0.000000000000000000e+00 2.916435723000000202e+00 0.000000000000000000e+00 0.000000000000000000e+00 0.000000000000000000e+00 2.916435723000000202e+00
2.916435723000000202e+00 0.000000000000000000e+00 0.000000000000000000e+00 0.000000000000000000e+00 2.916435723000000202e+00 0.000000000000000000e+00 0.000000000000000000e+00 0.000000000000000000e+00 2.916435723000000202e+00
2.916435723000000202e+00 0.000000000000000000e+00 0.000000000000000000e+00 0.000000000000000000e+00 2.916435723000000202e+00 0.000000000000000000e+00 0.000000000000000000e+00 0.000000000000000000e+00 2.916435723000000202e+00
2.844999488000000021e+00 0.000000000000000000e+00 0.000000000000000000e+00 2.024242000000000055e-02 3.001293723999999941e+00 0.000000000000000000e+00 5.530777299999999758e-02 -1.191624000000000069e-03 2.866987189000000047e+00
2.844999488000000021e+00 0.000000000000000000e+00 0.000000000000000000e+00 2.024242000000000055e-02 3.001293723999999941e+00 0.000000000000000000e+00 5.530777299999999758e-02 -1.191624000000000069e-03 2.866987189000000047e+00
2.844999488000000021e+00 0.000000000000000000e+00 0.000000000000000000e+00 2.024242000000000055e-02 3.001293723999999941e+00 0.000000000000000000e+00 5.530777299999999758e-02 -1.191624000000000069e-03 2.866987189000000047e+00
2.844999488000000021e+00 0.000000000000000000e+00 0.000000000000000000e+00 2.024242000000000055e-02 3.001293723999999941e+00 0.000000000000000000e+00 5.530777299999999758e-02 -1.191624000000000069e-03 2.866987189000000047e+00
2.844999488000000021e+00 0.000000000000000000e+00 0.000000000000000000e+00 2.024242000000000055e-02 3.001293723999999941e+00 0.000000000000000000e+00 5.530777299999999758e-02 -1.191624000000000069e-03 2.866987189000000047e+00
2.912902209999999936e+00 0.000000000000000000e+00 0.000000000000000000e+00 6.007424000000000097e-02 2.933433920000000139e+00 0.000000000000000000e+00 7.844878399999999363e-02 -5.338016699999999920e-02 2.933561107000000057e+00
2.912902209999999936e+00 0.000000000000000000e+00 0.000000000000000000e+00 6.007424000000000097e-02 2.933433920000000139e+00 0.000000000000000000e+00 7.844878399999999363e-02 -5.338016699999999920e-02 2.933561107000000057e+00
2.912902209999999936e+00 0.000000000000000000e+00 0.000000000000000000e+00 6.007424000000000097e-02 2.933433920000000139e+00 0.000000000000000000e+00 7.844878399999999363e-02 -5.338016699999999920e-02 2.933561107000000057e+00
2.912902209999999936e+00 0.000000000000000000e+00 0.000000000000000000e+00 6.007424000000000097e-02 2.933433920000000139e+00 0.000000000000000000e+00 7.844878399999999363e-02 -5.338016699999999920e-02 2.933561107000000057e+00
2.912902209999999936e+00 0.000000000000000000e+00 0.000000000000000000e+00 6.007424000000000097e-02 2.933433920000000139e+00 0.000000000000000000e+00 7.844878399999999363e-02 -5.338016699999999920e-02 2.933561107000000057e+00
2.934288029999999825e+00 0.000000000000000000e+00 0.000000000000000000e+00 -1.480257400000000063e-02 2.997188895999999936e+00 0.000000000000000000e+00 -2.025264900000000104e-02 -8.496599700000000144e-02 2.910963574999999803e+00
2.934288029999999825e+00 0.000000000000000000e+00 0.000000000000000000e+00 -1.480257400000000063e-02 2.997188895999999936e+00 0.000000000000000000e+00 -2.025264900000000104e-02 -8.496599700000000144e-02 2.910963574999999803e+00
2.934288029999999825e+00 0.000000000000000000e+00 0.000000000000000000e+00 -1.480257400000000063e-02 2.997188895999999936e+00 0.000000000000000000e+00 -2.025264900000000104e-02 -8.496599700000000144e-02 2.910963574999999803e+00
2.934288029999999825e+00 0.000000000000000000e+00 0.000000000000000000e+00 -1.480257400000000063e-02 2.997188895999999936e+00 0.000000000000000000e+00 -2.025264900000000104e-02 -8.496599700000000144e-02 2.910963574999999803e+00
2.934288029999999825e+00 0.000000000000000000e+00 0.000000000000000000e+00 -1.480257400000000063e-02 2.997188895999999936e+00 0.000000000000000000e+00 -2.025264900000000104e-02 -8.496599700000000144e-02 2.910963574999999803e+00
2.838061173999999909e+00 0.000000000000000000e+00 0.000000000000000000e+00 6.583822999999999932e-03 2.933418161000000079e+00 0.000000000000000000e+00 -1.365427999999999954e-02 9.986719999999999278e-04 2.991147548999999906e+00
2.838061173999999909e+00 0.000000000000000000e+00 0.000000000000000000e+00 6.583822999999999932e-03 2.933418161000000079e+00 0.000000000000000000e+00 -1.365427999999999954e-02 9.986719999999999278e-04 2.991147548999999906e+00
2.838061173999999909e+00 0.000000000000000000e+00 0.000000000000000000e+00 6.583822999999999932e-03 2.933418161000000079e+00 0.000000000000000000e+00 -1.365427999999999954e-02 9.986719999999999278e-04 2.991147548999999906e+00
2.838061173999999909e+00 0.000000000000000000e+00 0.000000000000000000e+00 6.583822999999999932e-03 2.933418161000000079e+00 0.000000000000000000e+00 -1.365427999999999954e-02 9.986719999999999278e-04 2.991147548999999906e+00
2.838061173999999909e+00 0.000000000000000000e+00 0.000000000000000000e+00 6.583822999999999932e-03 2.933418161000000079e+00 0.000000000000000000e+00 -1.365427999999999954e-02 9.986719999999999278e-04 2.991147548999999906e+00
2.957381203000000180e+00 0.000000000000000000e+00 0.000000000000000000e+00 3.512048799999999832e-02 2.849262232000000061e+00 0.000000000000000000e+00 -2.659259999999999879e-04 3.384121100000000298e-02 2.987215223999999836e+00
2.957381203000000180e+00 0.000000000000000000e+00 0.000000000000000000e+00 3.512048799999999832e-02 2.849262232000000061e+00 0.000000000000000000e+00 -2.659259999999999879e-04 3.384121100000000298e-02 2.987215223999999836e+00
2.957381203000000180e+00 0.000000000000000000e+00 0.000000000000000000e+00 3.512048799999999832e-02 2.849262232000000061e+00 0.000000000000000000e+00 -2.659259999999999879e-04 3.384121100000000298e-02 2.987215223999999836e+00
2.957381203000000180e+00 0.000000000000000000e+00 0.000000000000000000e+00 3.512048799999999832e-02 2.849262232000000061e+00 0.000000000000000000e+00 -2.659259999999999879e-04 3.384121100000000298e-02 2.987215223999999836e+00
2.957381203000000180e+00 0.000000000000000000e+00 0.000000000000000000e+00 3.512048799999999832e-02 2.849262232000000061e+00 0.000000000000000000e+00 -2.659259999999999879e-04 3.384121100000000298e-02 2.987215223999999836e+00
2.908388949999999973e+00 0.000000000000000000e+00 0.000000000000000000e+00 -2.354135099999999856e-02 2.876388758000000045e+00 0.000000000000000000e+00 -1.440240000000000021e-04 7.083190699999999951e-02 2.910321578000000020e+00
2.908388949999999973e+00 0.000000000000000000e+00 0.000000000000000000e+00 -2.354135099999999856e-02 2.876388758000000045e+00 0.000000000000000000e+00 -1.440240000000000021e-04 7.083190699999999951e-02 2.910321578000000020e+00