0.000000000000000000e+00 0.000000000000000000e+00 0.000000000000000000e+00 1.373269999999999991e+00 1.373269999999999991e+00 1.373269999999999991e+00
1.260000000000000052e-03 2.746269999999999989e+00 1.299999999999999886e-04 1.372009999999999952e+00 1.373539999999999983e+00 1.373140000000000027e+00
2.520000000000000104e-03 2.745999999999999996e+00 2.599999999999999772e-04 1.370759999999999978e+00 1.373820000000000041e+00 1.373019999999999907e+00
3.769999999999999914e-03 2.745730000000000004e+00 3.800000000000000209e-04 1.369499999999999940e+00 1.374090000000000034e+00 1.372889999999999944e+00
5.020000000000000157e-03 2.745460000000000012e+00 5.100000000000000366e-04 1.368249999999999966e+00 1.374360000000000026e+00 1.372759999999999980e+00
-1.093599999999999989e-01 2.676950000000000163e+00 2.771380000000000177e+00 1.288129999999999997e+00 1.340100000000000069e+00 1.386570000000000080e+00
-1.084500000000000047e-01 2.677480000000000082e+00 2.770630000000000148e+00 1.287220000000000031e+00 1.339569999999999927e+00 1.387320000000000109e+00
-1.075399999999999967e-01 2.678010000000000002e+00 2.769880000000000120e+00 1.286310000000000064e+00 1.339040000000000008e+00 1.388069999999999915e+00
-1.066399999999999987e-01 2.678539999999999921e+00 2.769130000000000091e+00 1.285409999999999942e+00 1.338510000000000089e+00 1.388819999999999943e+00
-1.057400000000000007e-01 2.679069999999999840e+00 2.768390000000000128e+00 1.284510000000000041e+00 1.337979999999999947e+00 1.389569999999999972e+00
2.593760000000000066e+00 2.666339999999999932e+00 4.400000000000000157e-04 1.280499999999999972e+00 1.301010000000000000e+00 1.335010000000000030e+00
2.592519999999999936e+00 2.666080000000000005e+00 2.000000000000000096e-04 1.281740000000000101e+00 1.301260000000000083e+00 1.335239999999999982e+00
2.549640000000000128e+00 2.592260000000000009e+00 2.685960000000000125e+00 1.282980000000000009e+00 1.301520000000000010e+00 1.335480000000000000e+00
2.548399999999999999e+00 2.592010000000000147e+00 2.685729999999999951e+00 1.284219999999999917e+00 1.301770000000000094e+00 1.335720000000000018e+00
2.547169999999999934e+00 2.591769999999999907e+00 2.685480000000000089e+00 1.285449999999999982e+00 1.302009999999999890e+00 1.335960000000000036e+00
3.160999999999999921e-02 2.791720000000000201e+00 1.729999999999999984e-03 1.350850000000000106e+00 1.377899999999999903e+00 1.346789999999999932e+00
3.125000000000000000e-02 2.792440000000000033e+00 2.739999999999999814e-03 1.351220000000000088e+00 1.377180000000000071e+00 1.345779999999999976e+00
4.800000000000000122e-04 2.900000000000000017e-04 3.749999999999999861e-03 1.351580000000000004e+00 1.376460000000000017e+00 1.344770000000000021e+00
1.100000000000000039e-04 1.010000000000000047e-03 4.760000000000000342e-03 1.351939999999999920e+00 1.375739999999999963e+00 1.343760000000000066e+00
2.731339999999999879e+00 1.729999999999999984e-03 5.769999999999999955e-03 1.352309999999999901e+00 1.375019999999999909e+00 1.342750000000000110e+00
2.822010000000000129e+00 2.711050000000000182e+00 2.756250000000000089e+00 1.415899999999999936e+00 1.360039999999999916e+00 1.372880000000000100e+00
2.822579999999999867e+00 2.710319999999999840e+00 2.757150000000000212e+00 1.415340000000000042e+00 1.360770000000000035e+00 1.371969999999999912e+00
2.823150000000000048e+00 2.709589999999999943e+00 2.758059999999999956e+00 1.414770000000000083e+00 1.361499999999999932e+00 1.371070000000000011e+00
2.823719999999999786e+00 2.708860000000000046e+00 2.758960000000000079e+00 1.414199999999999902e+00 1.362219999999999986e+00 1.370170000000000110e+00
2.824289999999999967e+00 2.708140000000000214e+00 2.759850000000000136e+00 1.413620000000000099e+00 1.362950000000000106e+00 1.369280000000000053e+00
2.726329999999999920e+00 9.259999999999999135e-03 2.802480000000000082e+00 1.391019999999999923e+00 1.417480000000000073e+00 1.405950000000000033e+00
2.727559999999999985e+00 8.909999999999999518e-03 2.802270000000000039e+00 1.389790000000000081e+00 1.417829999999999924e+00 1.406160000000000077e+00
2.728790000000000049e+00 8.559999999999999901e-03 2.802070000000000061e+00 1.388549999999999951e+00 1.418179999999999996e+00 1.406360000000000054e+00
-6.060000000000000109e-02 8.200000000000000691e-03 2.801870000000000083e+00 1.387320000000000109e+00 1.418539999999999912e+00 1.406560000000000032e+00
-5.936999999999999916e-02 7.849999999999999339e-03 2.801670000000000105e+00 1.386090000000000044e+00 1.418889999999999985e+00 1.406760000000000010e+00
2.807139999999999969e+00 2.883750000000000036e+00 2.735069999999999890e+00 1.407489999999999908e+00 1.440749999999999975e+00 1.367220000000000102e+00
2.806529999999999969e+00 2.884889999999999954e+00 2.734980000000000189e+00 1.408099999999999907e+00 1.439610000000000056e+00 1.367320000000000091e+00
2.762010000000000076e+00 7.174999999999999434e-02 2.734879999999999978e+00 1.408700000000000063e+00 1.438469999999999915e+00 1.367410000000000014e+00
2.761410000000000142e+00 7.288999999999999646e-02 2.734789999999999832e+00 1.409299999999999997e+00 1.437340000000000062e+00 1.367510000000000003e+00
2.760819999999999830e+00 7.402000000000000246e-02 2.734700000000000131e+00 1.409899999999999931e+00 1.436209999999999987e+00 1.367599999999999927e+00
2.798459999999999948e+00 -7.796999999999999764e-02 2.766750000000000043e+00 1.368910000000000071e+00 1.328100000000000058e+00 1.377490000000000103e+00
2.736629999999999896e+00 2.643889999999999851e+00 2.766950000000000021e+00 1.368449999999999944e+00 1.329290000000000083e+00 1.377289999999999903e+00
2.737089999999999801e+00 2.642700000000000049e+00 2.767139999999999933e+00 1.367990000000000039e+00 1.330480000000000107e+00 1.377099999999999991e+00
2.737550000000000150e+00 2.641519999999999868e+00 2.767329999999999846e+00 1.367520000000000069e+00 1.331660000000000066e+00 1.376910000000000078e+00
2.738020000000000120e+00 2.640340000000000131e+00 2.767520000000000202e+00 1.367059999999999942e+00 1.332840000000000025e+00 1.376719999999999944e+00
-4.352000000000000313e-02 2.745989999999999931e+00 9.300000000000000541e-04 1.296859999999999902e+00 1.340649999999999897e+00 1.339709999999999956e+00
4.689999999999999725e-03 4.600000000000000139e-04 1.430000000000000064e-03 1.296829999999999927e+00 1.339450000000000029e+00 1.339199999999999946e+00
4.720000000000000237e-03 1.649999999999999991e-03 1.940000000000000101e-03 1.296790000000000109e+00 1.338260000000000005e+00 1.338700000000000001e+00
4.749999999999999882e-03 2.840000000000000076e-03 2.439999999999999895e-03 1.296759999999999913e+00 1.337069999999999981e+00 1.338200000000000056e+00
4.780000000000000394e-03 4.029999999999999728e-03 2.939999999999999905e-03 1.296740000000000004e+00 1.335879999999999956e+00 1.337699999999999889e+00
2.706500000000000128e+00 2.704699999999999882e+00 8.049999999999999864e-03 1.338389999999999969e+00 1.356740000000000057e+00 1.369050000000000100e+00
2.707679999999999865e+00 2.704740000000000144e+00 7.519999999999999775e-03 1.337199999999999944e+00 1.356700000000000017e+00 1.369580000000000020e+00
2.708870000000000111e+00 2.704769999999999897e+00 6.980000000000000093e-03 1.336019999999999985e+00 1.356659999999999977e+00 1.370109999999999939e+00
2.710049999999999848e+00 2.704810000000000159e+00 6.450000000000000004e-03 1.334829999999999961e+00 1.356630000000000003e+00 1.370649999999999924e+00
-2.117000000000000132e-02 2.704849999999999977e+00 5.910000000000000323e-03 1.333650000000000002e+00 1.356579999999999897e+00 1.371189999999999909e+00
0.000000000000000000e+00 0.000000000000000000e+00 0.000000000000000000e+00 1.415750000000000064e+00 1.415750000000000064e+00 1.415750000000000064e+00
2.400000000000000061e-04 2.830890000000000128e+00 2.830369999999999830e+00 1.415510000000000046e+00 1.416349999999999998e+00 1.416870000000000074e+00
4.800000000000000122e-04 2.830290000000000195e+00 2.829250000000000043e+00 1.415270000000000028e+00 1.416949999999999932e+00 1.417980000000000018e+00
7.200000000000000453e-04 2.829689999999999817e+00 2.828129999999999811e+00 1.415030000000000010e+00 1.417550000000000088e+00 1.419100000000000028e+00
9.600000000000000243e-04 2.829089999999999883e+00 2.827020000000000088e+00 1.414789999999999992e+00 1.418150000000000022e+00 1.420220000000000038e+00
-1.568999999999999909e-02 2.894099999999999895e+00 2.785969999999999835e+00 1.403049999999999908e+00 1.445810000000000040e+00 1.394309999999999938e+00
-1.494000000000000015e-02 2.894930000000000003e+00 2.785320000000000018e+00 1.402300000000000102e+00 1.444970000000000088e+00 1.394959999999999978e+00
-4.995999999999999747e-02 5.546999999999999847e-02 2.784679999999999822e+00 1.401550000000000074e+00 1.444139999999999979e+00 1.395599999999999952e+00
-4.920999999999999680e-02 5.630000000000000282e-02 2.784030000000000005e+00 1.400800000000000045e+00 1.443310000000000093e+00 1.396249999999999991e+00
-4.846999999999999920e-02 5.713000000000000023e-02 2.783389999999999809e+00 1.400060000000000082e+00 1.442490000000000050e+00 1.396889999999999965e+00
3.269999999999999903e-03 2.060000000000000199e-03 5.950000000000000427e-03 1.533430000000000071e+00 1.435759999999999925e+00 1.394150000000000000e+00
2.899999999999999800e-03 2.370000000000000145e-03 4.740000000000000289e-03 1.533800000000000052e+00 1.435449999999999893e+00 1.395359999999999934e+00
2.530000000000000131e-03 2.670000000000000064e-03 3.540000000000000178e-03 1.534170000000000034e+00 1.435140000000000082e+00 1.396560000000000024e+00
2.160000000000000028e-03 2.980000000000000010e-03 2.340000000000000066e-03 1.534540000000000015e+00 1.434839999999999893e+00 1.397759999999999891e+00
1.789999999999999925e-03 3.279999999999999930e-03 1.139999999999999954e-03 1.534909999999999997e+00 1.434539999999999926e+00 1.398970000000000047e+00
-4.075999999999999762e-02 1.391000000000000049e-02 2.846760000000000179e+00 1.325860000000000039e+00 1.395909999999999984e+00 1.423610000000000042e+00
2.746760000000000090e+00 4.400000000000000157e-04 5.599999999999999509e-04 1.326650000000000107e+00 1.396060000000000079e+00 1.422600000000000087e+00
2.745979999999999865e+00 2.799999999999999755e-04 1.569999999999999998e-03 1.327430000000000110e+00 1.396209999999999951e+00 1.421580000000000066e+00
2.745190000000000019e+00 1.299999999999999886e-04 2.589999999999999854e-03 1.328219999999999956e+00 1.396369999999999889e+00 1.420570000000000110e+00
2.690280000000000005e+00 2.778200000000000003e+00 3.599999999999999901e-03 1.328999999999999959e+00 1.396519999999999984e+00 1.419559999999999933e+00
2.760600000000000165e+00 1.406999999999999917e-02 2.827370000000000161e+00 1.353329999999999922e+00 1.451089999999999991e+00 1.418360000000000065e+00
2.760639999999999983e+00 1.417999999999999990e-02 2.826090000000000213e+00 1.353290000000000104e+00 1.450979999999999936e+00 1.419650000000000079e+00
2.760679999999999801e+00 1.427999999999999929e-02 2.824800000000000200e+00 1.353239999999999998e+00 1.450879999999999947e+00 1.420930000000000026e+00
2.760730000000000128e+00 1.439000000000000001e-02 2.823519999999999808e+00 1.353199999999999958e+00 1.450769999999999893e+00 1.422209999999999974e+00
2.760769999999999946e+00 1.447999999999999982e-02 2.822249999999999925e+00 1.353150000000000075e+00 1.450679999999999970e+00 1.423489999999999922e+00
2.884520000000000195e+00 2.672429999999999861e+00 2.845569999999999933e+00 1.437119999999999953e+00 1.332489999999999952e+00 1.424819999999999975e+00
2.884570000000000078e+00 2.672359999999999847e+00 2.844279999999999919e+00 1.437070000000000070e+00 1.332559999999999967e+00 1.426109999999999989e+00
2.884619999999999962e+00 2.672289999999999832e+00 2.842999999999999972e+00 1.437019999999999964e+00 1.332629999999999981e+00 1.427389999999999937e+00
2.884669999999999845e+00 2.672219999999999818e+00 2.841720000000000024e+00 1.436970000000000081e+00 1.332699999999999996e+00 1.428670000000000107e+00
2.884710000000000107e+00 2.672159999999999869e+00 2.840440000000000076e+00 1.436919999999999975e+00 1.332770000000000010e+00 1.429950000000000054e+00
4.392000000000000071e-02 7.605000000000000648e-02 2.826979999999999826e+00 1.458849999999999980e+00 1.493929999999999980e+00 1.414150000000000018e+00
4.472000000000000280e-02 7.624000000000000221e-02 2.827980000000000160e+00 1.458050000000000068e+00 1.493740000000000068e+00 1.413149999999999906e+00
4.551000000000000184e-02 7.643999999999999406e-02 2.828980000000000050e+00 1.457249999999999934e+00 1.493549999999999933e+00 1.412150000000000016e+00
3.799999999999999992e-03 2.530000000000000131e-03 8.199999999999999824e-04 1.456460000000000088e+00 1.493349999999999955e+00 1.411149999999999904e+00
4.590000000000000330e-03 2.729999999999999788e-03 1.809999999999999977e-03 1.455670000000000019e+00 1.493160000000000043e+00 1.410160000000000080e+00
6.504999999999999671e-02 2.907620000000000093e+00 2.720000000000000195e-03 1.408849999999999936e+00 1.431440000000000046e+00 1.398519999999999985e+00
6.619999999999999496e-02 2.908069999999999933e+00 2.340000000000000066e-03 1.407699999999999951e+00 1.430989999999999984e+00 1.398900000000000032e+00
6.734999999999999321e-02 2.908520000000000216e+00 1.969999999999999963e-03 1.406549999999999967e+00 1.430539999999999923e+00 1.399270000000000014e+00
6.850000000000000533e-02 2.908980000000000121e+00 1.590000000000000050e-03 1.405410000000000048e+00 1.430090000000000083e+00 1.399650000000000061e+00
6.963999999999999357e-02 2.909429999999999961e+00 1.209999999999999921e-03 1.404269999999999907e+00 1.429629999999999956e+00 1.400030000000000108e+00
5.951000000000000040e-02 2.909740000000000215e+00 2.752120000000000122e+00 1.466210000000000013e+00 1.456020000000000092e+00 1.371199999999999974e+00
6.650000000000000355e-02 6.586999999999999800e-02 2.753000000000000114e+00 1.465740000000000043e+00 1.455200000000000049e+00 1.370319999999999983e+00
6.697000000000000175e-02 6.668999999999999928e-02 2.753870000000000040e+00 1.465270000000000072e+00 1.454369999999999941e+00 1.369439999999999991e+00
2.050000000000000173e-03 1.959999999999999937e-03 6.499999999999999702e-04 1.464800000000000102e+00 1.453549999999999898e+00 1.368570000000000064e+00
2.510000000000000078e-03 2.779999999999999919e-03 1.520000000000000084e-03 1.464329999999999909e+00 1.452730000000000077e+00 1.367699999999999916e+00
4.975999999999999868e-02 2.825429999999999886e+00 2.754779999999999784e+00 1.484499999999999931e+00 1.411010000000000097e+00 1.382379999999999942e+00
5.054000000000000159e-02 2.826270000000000060e+00 2.755389999999999784e+00 1.483719999999999928e+00 1.410179999999999989e+00 1.381769999999999943e+00
5.131000000000000144e-02 2.827109999999999790e+00 2.755999999999999783e+00 1.482949999999999990e+00 1.409340000000000037e+00 1.381159999999999943e+00
2.706000000000000072e-02 2.747920000000000140e+00 2.400000000000000061e-04 1.482169999999999987e+00 1.408509999999999929e+00 1.380549999999999944e+00
9.969999999999999696e-03 2.999999999999999737e-04 8.599999999999999789e-04 1.481400000000000050e+00 1.407669999999999977e+00 1.379939999999999944e+00
0.000000000000000000e+00 0.000000000000000000e+00 0.000000000000000000e+00 1.458220000000000072e+00 1.458220000000000072e+00 1.458220000000000072e+00
8.000000000000000383e-04 2.915929999999999911e+00 2.915550000000000086e+00 1.457419999999999938e+00 1.458720000000000017e+00 1.459100000000000064e+00
1.590000000000000050e-03 2.915420000000000122e+00 2.914660000000000029e+00 1.456630000000000091e+00 1.459230000000000027e+00 1.459989999999999899e+00
2.380000000000000171e-03 2.914919999999999956e+00 2.913780000000000037e+00 1.455829999999999957e+00 1.459740000000000038e+00 1.460879999999999956e+00
3.180000000000000101e-03 2.914410000000000167e+00 2.912889999999999979e+00 1.455039999999999889e+00 1.460239999999999982e+00 1.461759999999999948e+00
3.660000000000000059e-03 1.389999999999999960e-03 2.880000000000000181e-03 1.460220000000000073e+00 1.503489999999999993e+00 1.429929999999999923e+00
2.949999999999999931e-03 6.999999999999999929e-04 3.710000000000000190e-03 1.460930000000000062e+00 1.504170000000000007e+00 1.429100000000000037e+00
2.239999999999999804e-03 1.000000000000000082e-05 4.539999999999999765e-03 1.461640000000000050e+00 1.504860000000000086e+00 1.428269999999999929e+00
2.177000000000000116e-02 3.000620000000000065e+00 5.369999999999999774e-03 1.462360000000000104e+00 1.505549999999999944e+00 1.427440000000000042e+00
2.105999999999999886e-02 2.999940000000000051e+00 6.190000000000000190e-03 1.463070000000000093e+00 1.506229999999999958e+00 1.426619999999999999e+00
2.967890000000000139e+00 2.927979999999999805e+00 3.959999999999999978e-03 1.526980000000000004e+00 1.437230000000000008e+00 1.464439999999999964e+00
2.969069999999999876e+00 2.928010000000000002e+00 3.429999999999999889e-03 1.525800000000000045e+00 1.437200000000000033e+00 1.464970000000000105e+00
2.970260000000000122e+00 2.928040000000000198e+00 2.909999999999999826e-03 1.524610000000000021e+00 1.437170000000000059e+00 1.465500000000000025e+00
2.971439999999999859e+00 2.928080000000000016e+00 2.380000000000000171e-03 1.523430000000000062e+00 1.437130000000000019e+00 1.466029999999999944e+00
2.972630000000000106e+00 2.928110000000000213e+00 1.850000000000000082e-03 1.522240000000000038e+00 1.437100000000000044e+00 1.466560000000000086e+00
2.910899999999999821e+00 -8.149000000000000687e-02 2.909949999999999815e+00 1.449459999999999971e+00 1.452830000000000066e+00 1.450870000000000104e+00
2.910210000000000186e+00 -8.208999999999999631e-02 2.909019999999999939e+00 1.450139999999999985e+00 1.453430000000000000e+00 1.451799999999999979e+00
2.909530000000000172e+00 -8.268000000000000349e-02 2.908100000000000129e+00 1.450819999999999999e+00 1.454020000000000090e+00 1.452730000000000077e+00
2.908850000000000158e+00 -8.328000000000000680e-02 2.907169999999999810e+00 1.451510000000000078e+00 1.454620000000000024e+00 1.453650000000000109e+00
2.908170000000000144e+00 -8.387999999999999623e-02 2.906250000000000000e+00 1.452190000000000092e+00 1.455209999999999892e+00 1.454579999999999984e+00
2.837460000000000093e+00 4.060000000000000241e-03 2.720000000000000195e-03 1.413960000000000106e+00 1.472350000000000048e+00 1.495479999999999920e+00
2.836300000000000043e+00 4.619999999999999975e-03 2.830000000000000050e-03 1.415119999999999933e+00 1.471789999999999932e+00 1.495370000000000088e+00
2.835129999999999928e+00 5.179999999999999709e-03 2.939999999999999905e-03 1.416290000000000049e+00 1.471230000000000038e+00 1.495260000000000034e+00
2.833969999999999878e+00 5.729999999999999850e-03 3.050000000000000194e-03 1.417450000000000099e+00 1.470669999999999922e+00 1.495149999999999979e+00
2.832809999999999828e+00 6.289999999999999584e-03 3.160000000000000048e-03 1.418609999999999927e+00 1.470120000000000093e+00 1.495039999999999925e+00
3.967999999999999999e-02 2.876570000000000071e+00 2.983769999999999811e+00 1.500909999999999966e+00 1.437189999999999968e+00 1.493800000000000017e+00
3.962000000000000244e-02 2.876829999999999998e+00 2.985030000000000072e+00 1.500969999999999915e+00 1.436930000000000041e+00 1.492529999999999912e+00
3.955999999999999794e-02 2.877079999999999860e+00 2.986299999999999955e+00 1.501020000000000021e+00 1.436669999999999892e+00 1.491260000000000030e+00
3.976999999999999980e-02 2.843500000000000139e+00 3.499999999999999964e-04 1.501079999999999970e+00 1.436409999999999965e+00 1.489989999999999926e+00
3.971000000000000224e-02 2.843760000000000066e+00 1.619999999999999912e-03 1.501139999999999919e+00 1.436150000000000038e+00 1.488730000000000109e+00
-2.265999999999999959e-02 2.945009999999999906e+00 2.908380000000000187e+00 1.442399999999999904e+00 1.473659999999999970e+00 1.455410000000000093e+00
-2.234999999999999834e-02 2.943869999999999987e+00 2.907869999999999955e+00 1.442090000000000094e+00 1.474809999999999954e+00 1.455920000000000103e+00
-2.204000000000000056e-02 2.942720000000000002e+00 2.907360000000000166e+00 1.441780000000000062e+00 1.475950000000000095e+00 1.456429999999999891e+00
-2.172999999999999932e-02 2.941580000000000084e+00 2.906849999999999934e+00 1.441470000000000029e+00 1.477100000000000080e+00 1.456939999999999902e+00
-2.142000000000000154e-02 2.940440000000000165e+00 2.906340000000000146e+00 1.441159999999999997e+00 1.478239999999999998e+00 1.457449999999999912e+00
-4.050000000000000128e-02 4.537000000000000061e-02 2.959379999999999900e+00 1.477479999999999905e+00 1.449519999999999920e+00 1.483440000000000092e+00
-3.932000000000000078e-02 4.540000000000000285e-02 2.958860000000000046e+00 1.476299999999999946e+00 1.449489999999999945e+00 1.483959999999999946e+00
-3.814000000000000029e-02 4.542999999999999816e-02 2.958330000000000126e+00 1.475109999999999921e+00 1.449459999999999971e+00 1.484480000000000022e+00
-3.694999999999999674e-02 4.546000000000000041e-02 2.957809999999999828e+00 1.473929999999999962e+00 1.449440000000000062e+00 1.485000000000000098e+00
-3.577000000000000318e-02 4.547999999999999959e-02 2.957300000000000040e+00 1.472750000000000004e+00 1.449410000000000087e+00 1.485519999999999952e+00
2.139999999999999975e-03 6.380000000000000254e-03 4.230000000000000253e-03 1.442620000000000013e+00 1.420819999999999972e+00 1.493589999999999973e+00
2.050000000000000173e-03 7.320000000000000118e-03 5.120000000000000419e-03 1.442720000000000002e+00 1.419890000000000096e+00 1.492699999999999916e+00
1.949999999999999910e-03 8.240000000000000796e-03 6.000000000000000125e-03 1.442809999999999926e+00 1.418959999999999999e+00 1.491810000000000080e+00
1.850000000000000082e-03 9.169999999999999332e-03 6.890000000000000291e-03 1.442909999999999915e+00 1.418029999999999902e+00 1.490930000000000089e+00
1.760000000000000063e-03 1.009000000000000001e-02 7.769999999999999997e-03 1.443009999999999904e+00 1.417110000000000092e+00 1.490040000000000031e+00
2.885279999999999845e+00 8.099999999999999561e-04 3.050000000000000194e-03 1.474960000000000049e+00 1.515940000000000065e+00 1.467719999999999914e+00
2.884119999999999795e+00 1.280000000000000105e-03 3.350000000000000113e-03 1.476129999999999942e+00 1.515470000000000095e+00 1.467410000000000103e+00
2.882960000000000189e+00 1.760000000000000063e-03 3.660000000000000059e-03 1.477289999999999992e+00 1.514999999999999902e+00 1.467100000000000071e+00
2.881790000000000074e+00 2.230000000000000211e-03 3.969999999999999571e-03 1.478450000000000042e+00 1.514520000000000088e+00 1.466800000000000104e+00
2.880640000000000089e+00 2.700000000000000143e-03 4.270000000000000358e-03 1.479610000000000092e+00 1.514049999999999896e+00 1.466490000000000071e+00
