-1.634625796999999991e+01
-1.634622170999999824e+01
-1.634611338999999930e+01
-1.634593346999999852e+01
-1.634568279999999874e+01
-1.621090858999999895e+01
-1.621079845999999947e+01
-1.621062733999999850e+01
-1.621039556999999931e+01
-1.621010378000000074e+01
-1.598417687000000065e+01
-1.598399331999999973e+01
-1.598373851999999928e+01
-1.598341296000000078e+01
-1.598301758999999933e+01
-1.630619266000000067e+01
-1.630616850999999912e+01
-1.630607425000000177e+01
-1.630591026999999826e+01
-1.630567731000000009e+01
-1.635151924999999906e+01
-1.635144777000000005e+01
-1.635130678000000159e+01
-1.635109659000000093e+01
-1.635081819999999908e+01
-1.645635116000000053e+01
-1.645646372999999940e+01
-1.645651103999999876e+01
-1.645649298000000016e+01
-1.645640962999999957e+01
-1.641766670000000161e+01
-1.641755698000000052e+01
-1.641737346000000031e+01
-1.641711701999999917e+01
-1.641678873000000038e+01
-1.637914092999999838e+01
-1.637899296999999876e+01
-1.637877737000000167e+01
-1.637849500000000091e+01
-1.637814692999999977e+01
-1.618951935999999847e+01
-1.618950629000000063e+01
-1.618942728000000031e+01
-1.618928228000000047e+01
-1.618907159000000107e+01
-1.627660858000000133e+01
-1.627678982000000119e+01
-1.627690593999999891e+01
-1.627695652999999965e+01
-1.627694139999999834e+01
-1.647347887999999827e+01
-1.647344823999999974e+01
-1.647335660999999973e+01
-1.647320420000000141e+01
-1.647299153999999888e+01
-1.646063730999999919e+01
-1.646054957999999857e+01
-1.646039896999999996e+01
-1.646018594999999962e+01
-1.645991117000000159e+01
-1.644457421999999980e+01
-1.644463006999999877e+01
-1.644463153999999960e+01
-1.644457806000000133e+01
-1.644446981999999835e+01
-1.643377119000000164e+01
-1.643375551999999828e+01
-1.643367033000000177e+01
-1.643351604000000066e+01
-1.643329324999999841e+01
-1.645660147999999978e+01
-1.645644022000000106e+01
-1.645621734999999930e+01
-1.645593350000000044e+01
-1.645558954999999912e+01
-1.645582020999999884e+01
-1.645567153000000005e+01
-1.645545866999999873e+01
-1.645518223999999918e+01
-1.645484314000000126e+01
-1.645401482000000115e+01
-1.645392998000000162e+01
-1.645379000999999874e+01
-1.645359476000000143e+01
-1.645334477000000106e+01
-1.644653123000000150e+01
-1.644641872000000049e+01
-1.644624694999999903e+01
-1.644601635000000073e+01
-1.644572760999999872e+01
-1.645426744999999968e+01
-1.645414797000000107e+01
-1.645397047000000157e+01
-1.645373525999999842e+01
-1.645344302000000170e+01
-1.643410821999999882e+01
-1.643410546000000139e+01
-1.643403930999999929e+01
-1.643390976999999964e+01
-1.643371730999999869e+01
-1.638082417000000035e+01
-1.638080125000000109e+01
-1.638073372999999933e+01
-1.638062137000000007e+01
-1.638046441999999914e+01
-1.639544128000000001e+01
-1.639535671999999877e+01
-1.639522450000000120e+01
-1.639504493999999823e+01
-1.639481848999999869e+01
-1.635614553999999998e+01
-1.635626725999999920e+01
-1.635634496000000127e+01
-1.635637832000000103e+01
-1.635636730999999955e+01
-1.631523192999999949e+01
-1.631528008000000085e+01
-1.631528627999999870e+01
-1.631525072999999892e+01
-1.631517355000000080e+01
-1.636923682999999841e+01
-1.636923299000000043e+01
-1.636918757000000113e+01
-1.636910066000000086e+01
-1.636897245000000112e+01
-1.634932965000000138e+01
-1.634937640000000059e+01
-1.634937744999999865e+01
-1.634933278999999828e+01
-1.634924258999999935e+01
-1.641181282999999880e+01
-1.641173022999999986e+01
-1.641159934999999948e+01
-1.641142046999999948e+01
-1.641119401999999994e+01
-1.636255182000000019e+01
-1.636252131999999904e+01
-1.636244604999999908e+01
-1.636232607999999900e+01
-1.636216170999999875e+01
-1.636355121000000068e+01
-1.636337350999999884e+01
-1.636315267999999890e+01
-1.636288904999999971e+01
-1.636258319999999955e+01
-1.635920665000000085e+01
-1.635914577999999864e+01
-1.635904322000000022e+01
-1.635889896000000121e+01
-1.635871330999999884e+01
