0.000000000000000000e+00 0.000000000000000000e+00 9.999999999999999547e-07 -9.999999999999999547e-07 0.000000000000000000e+00 9.999999999999999547e-07
-2.700100000000000069e-02 5.851000000000000298e-03 -2.762999999999999831e-03 2.699899999999999869e-02 -5.851000000000000298e-03 2.762999999999999831e-03
-5.420500000000000318e-02 1.170200000000000060e-02 -5.527999999999999928e-03 5.420300000000000118e-02 -1.170200000000000060e-02 5.526999999999999795e-03
-8.138499999999999901e-02 1.755400000000000016e-02 -8.293000000000000024e-03 8.138499999999999901e-02 -1.755400000000000016e-02 8.293000000000000024e-03
-1.078800000000000037e-01 2.326900000000000149e-02 -1.099299999999999930e-02 1.078839999999999938e-01 -2.326900000000000149e-02 1.099299999999999930e-02
-5.671199999999999852e-02 3.840500000000000164e-02 1.096699999999999932e-02 5.666500000000000009e-02 -3.828899999999999665e-02 -1.095400000000000020e-02
-7.354600000000000026e-02 2.782899999999999957e-02 2.412900000000000114e-02 7.350099999999999689e-02 -2.771600000000000105e-02 -2.411699999999999955e-02
-9.033900000000000263e-02 1.715200000000000058e-02 3.731500000000000095e-02 9.030000000000000526e-02 -1.704299999999999912e-02 -3.730699999999999988e-02
-1.073059999999999986e-01 6.459999999999999597e-03 5.060100000000000015e-02 1.072729999999999934e-01 -6.354000000000000273e-03 -5.059700000000000308e-02
-1.238070000000000004e-01 -4.015000000000000339e-03 6.356000000000000538e-02 1.237779999999999991e-01 4.117000000000000000e-03 -6.355399999999999938e-02
6.264000000000000123e-02 4.801400000000000112e-02 -7.219000000000000417e-02 -6.268700000000000661e-02 -4.811100000000000099e-02 7.216799999999999604e-02
8.857600000000000195e-02 5.720100000000000184e-02 -6.455099999999999727e-02 -8.861800000000000233e-02 -5.729000000000000065e-02 6.451999999999999402e-02
1.144669999999999993e-01 6.626400000000000345e-02 -5.686700000000000088e-02 -1.145059999999999967e-01 -6.635000000000000620e-02 5.683499999999999663e-02
1.406380000000000130e-01 7.542400000000000493e-02 -4.928799999999999848e-02 -1.406739999999999935e-01 -7.550700000000000467e-02 4.925600000000000117e-02
1.662530000000000119e-01 8.443499999999999617e-02 -4.186800000000000244e-02 -1.662899999999999934e-01 -8.451699999999999491e-02 4.184199999999999725e-02
-1.725000000000000144e-02 1.893099999999999991e-02 -1.418699999999999996e-02 1.726000000000000104e-02 -1.895099999999999910e-02 1.419800000000000055e-02
-1.019100000000000041e-02 3.474000000000000091e-03 -3.525099999999999761e-02 1.020000000000000073e-02 -3.497000000000000108e-03 3.526200000000000168e-02
-3.057999999999999954e-03 -1.203000000000000076e-02 -5.635300000000000031e-02 3.067999999999999981e-03 1.200799999999999958e-02 5.636399999999999744e-02
4.066000000000000170e-03 -2.753099999999999992e-02 -7.753400000000000569e-02 -4.056999999999999842e-03 2.751200000000000173e-02 7.754600000000000382e-02
1.102099999999999955e-02 -4.276699999999999946e-02 -9.819100000000000050e-02 -1.101199999999999922e-02 4.275099999999999734e-02 9.820399999999999963e-02
8.900299999999999878e-02 5.793500000000000039e-02 -2.848699999999999843e-02 -8.910899999999999377e-02 -5.787599999999999689e-02 2.838099999999999998e-02
7.718500000000000361e-02 7.356100000000000139e-02 -4.751699999999999674e-02 -7.728799999999999559e-02 -7.349899999999999489e-02 4.740400000000000169e-02
6.510299999999999421e-02 8.919399999999999551e-02 -6.666400000000000103e-02 -6.520600000000000007e-02 -8.913300000000000389e-02 6.654999999999999805e-02
5.306199999999999806e-02 1.048390000000000016e-01 -8.580599999999999339e-02 -5.315899999999999792e-02 -1.047789999999999971e-01 8.569100000000000328e-02
4.124200000000000088e-02 1.199989999999999946e-01 -1.043990000000000057e-01 -4.132999999999999868e-02 -1.199449999999999961e-01 1.042899999999999938e-01
6.257200000000000262e-02 -2.706799999999999831e-02 6.668000000000000316e-02 -6.264400000000000523e-02 2.681100000000000150e-02 -6.665899999999999603e-02
3.882000000000000034e-02 -1.952299999999999869e-02 6.996600000000000041e-02 -3.889700000000000102e-02 1.926299999999999887e-02 -6.993800000000000017e-02
1.466100000000000042e-02 -1.190399999999999965e-02 7.315099999999999381e-02 -1.473700000000000010e-02 1.164100000000000031e-02 -7.312100000000000544e-02
-9.596000000000000363e-03 -4.275000000000000154e-03 7.647700000000000331e-02 9.525999999999999746e-03 4.009999999999999676e-03 -7.644700000000000106e-02
-3.310799999999999854e-02 3.201999999999999985e-03 7.962900000000000533e-02 3.304499999999999799e-02 -3.465999999999999897e-03 -7.959900000000000309e-02
4.958800000000000013e-02 -5.424000000000000002e-03 1.093000000000000005e-03 -4.959199999999999720e-02 5.519999999999999733e-03 -1.103000000000000031e-03
6.318799999999999417e-02 -3.041400000000000006e-02 4.333000000000000046e-03 -6.319400000000000017e-02 3.051399999999999946e-02 -4.343999999999999771e-03
7.667699999999999516e-02 -5.551299999999999985e-02 7.546999999999999889e-03 -7.667799999999999616e-02 5.560699999999999671e-02 -7.561000000000000013e-03
9.023200000000000665e-02 -8.064200000000000534e-02 1.075300000000000041e-02 -9.023000000000000465e-02 8.073199999999999821e-02 -1.077200000000000032e-02
1.034420000000000062e-01 -1.051239999999999952e-01 1.391300000000000002e-02 -1.034390000000000032e-01 1.052120000000000000e-01 -1.393600000000000047e-02
4.179499999999999882e-02 5.619999999999999996e-02 -4.755600000000000105e-02 -4.163700000000000040e-02 -5.592199999999999949e-02 4.759300000000000336e-02
3.256599999999999773e-02 8.082200000000000495e-02 -5.069800000000000001e-02 -3.241299999999999737e-02 -8.054300000000000348e-02 5.073099999999999832e-02
2.326100000000000043e-02 1.053990000000000066e-01 -5.375200000000000117e-02 -2.311099999999999960e-02 -1.051359999999999933e-01 5.378399999999999848e-02
1.393100000000000067e-02 1.301420000000000077e-01 -5.686599999999999988e-02 -1.378799999999999991e-02 -1.298950000000000105e-01 5.689400000000000013e-02
4.826999999999999694e-03 1.540710000000000135e-01 -5.983000000000000124e-02 -4.691999999999999990e-03 -1.538390000000000035e-01 5.985300000000000342e-02
-4.607499999999999790e-02 1.374399999999999927e-02 -9.299999999999999239e-03 4.618099999999999983e-02 -1.382899999999999928e-02 9.289999999999999647e-03
-4.836399999999999727e-02 -9.246000000000000746e-03 -2.040000000000000147e-02 4.846799999999999720e-02 9.164000000000000271e-03 2.039099999999999940e-02
-5.056800000000000184e-02 -3.237500000000000100e-02 -3.148200000000000304e-02 5.066899999999999876e-02 3.229300000000000226e-02 3.147199999999999998e-02
-5.286400000000000127e-02 -5.569899999999999851e-02 -4.267900000000000166e-02 5.296599999999999919e-02 5.561599999999999877e-02 4.266699999999999660e-02
-5.519099999999999701e-02 -7.852599999999999858e-02 -5.371000000000000080e-02 5.529499999999999693e-02 7.844500000000000084e-02 5.369899999999999674e-02
3.846700000000000119e-02 6.343000000000000027e-02 -1.120879999999999932e-01 -3.860500000000000043e-02 -6.340600000000000402e-02 1.122680000000000067e-01
1.512699999999999982e-02 6.250600000000000600e-02 -1.021230000000000054e-01 -1.527700000000000065e-02 -6.248100000000000181e-02 1.023150000000000032e-01
-8.373999999999999500e-03 6.142600000000000143e-02 -9.191199999999999370e-02 8.219000000000000611e-03 -6.140099999999999725e-02 9.211199999999999943e-02
-3.198899999999999660e-02 6.041799999999999948e-02 -8.176400000000000334e-02 3.183400000000000118e-02 -6.039100000000000024e-02 8.196699999999999819e-02
-5.512000000000000233e-02 5.935499999999999804e-02 -7.172800000000000009e-02 5.496800000000000297e-02 -5.932599999999999679e-02 7.193800000000000194e-02
0.000000000000000000e+00 9.999999999999999547e-07 0.000000000000000000e+00 0.000000000000000000e+00 0.000000000000000000e+00 0.000000000000000000e+00
-4.355999999999999629e-03 1.092100000000000015e-02 2.024899999999999964e-02 4.355000000000000364e-03 -1.091800000000000062e-02 -2.024400000000000158e-02
-8.744999999999999302e-03 2.193000000000000158e-02 4.075999999999999762e-02 8.744000000000000036e-03 -2.192799999999999958e-02 -4.075700000000000156e-02
-1.315700000000000029e-02 3.300000000000000155e-02 6.138400000000000106e-02 1.315799999999999956e-02 -3.300199999999999662e-02 -6.138600000000000306e-02
-1.745299999999999976e-02 4.376499999999999835e-02 8.137600000000000389e-02 1.745499999999999829e-02 -4.376700000000000035e-02 -8.137800000000000589e-02
-9.542999999999999400e-03 -7.640000000000000090e-03 2.254899999999999960e-02 9.466999999999999721e-03 7.695999999999999716e-03 -2.249299999999999911e-02
-2.298499999999999849e-02 -2.369999999999999885e-02 3.464199999999999918e-02 2.290700000000000028e-02 2.375100000000000128e-02 -3.458399999999999669e-02
-3.662699999999999984e-02 -3.996199999999999752e-02 4.684200000000000169e-02 3.655400000000000316e-02 4.001500000000000196e-02 -4.678899999999999726e-02
-5.033900000000000180e-02 -5.629200000000000176e-02 5.912400000000000294e-02 5.027299999999999824e-02 5.634399999999999825e-02 -5.907599999999999657e-02
-6.363000000000000600e-02 -7.217400000000000204e-02 7.105100000000000304e-02 6.356900000000000051e-02 7.222399999999999654e-02 -7.100700000000000067e-02
-4.626700000000000257e-02 -2.670499999999999957e-02 -2.765499999999999903e-02 4.632700000000000012e-02 2.676200000000000107e-02 2.752599999999999839e-02
-4.042699999999999766e-02 -3.177599999999999869e-02 -8.123000000000000012e-03 4.048800000000000315e-02 3.183500000000000218e-02 7.997000000000000636e-03
-3.439199999999999896e-02 -3.685000000000000081e-02 1.184999999999999942e-02 3.445200000000000345e-02 3.690500000000000030e-02 -1.197200000000000000e-02
-2.841199999999999976e-02 -4.200199999999999767e-02 3.192299999999999999e-02 2.847299999999999831e-02 4.205099999999999810e-02 -3.203700000000000297e-02
-2.259999999999999856e-02 -4.701700000000000323e-02 5.127700000000000313e-02 2.266200000000000159e-02 4.705999999999999767e-02 -5.138299999999999812e-02
-4.754000000000000413e-03 -4.695999999999999654e-03 4.972999999999999990e-03 4.771000000000000067e-03 4.682999999999999663e-03 -4.962000000000000265e-03
1.059900000000000078e-02 -1.131000000000000061e-03 -1.659300000000000011e-02 -1.058500000000000066e-02 1.118000000000000070e-03 1.660800000000000123e-02
2.606999999999999942e-02 2.449999999999999921e-03 -3.833899999999999808e-02 -2.605400000000000077e-02 -2.462000000000000213e-03 3.835100000000000314e-02
4.163399999999999740e-02 6.035999999999999699e-03 -6.016500000000000320e-02 -4.161499999999999921e-02 -6.045000000000000026e-03 6.017200000000000326e-02
5.670599999999999946e-02 9.537999999999999604e-03 -8.136699999999999489e-02 -5.668600000000000028e-02 -9.544999999999999665e-03 8.137400000000000189e-02
2.200600000000000125e-02 -4.670099999999999946e-02 4.734800000000000120e-02 -2.222700000000000023e-02 4.684300000000000269e-02 -4.738900000000000057e-02
2.101300000000000043e-02 -4.896699999999999664e-02 7.112899999999999778e-02 -2.123200000000000087e-02 4.911000000000000087e-02 -7.116699999999999415e-02
1.997799999999999923e-02 -5.115999999999999714e-02 9.523900000000000421e-02 -2.019500000000000114e-02 5.130099999999999938e-02 -9.526099999999999846e-02
1.897199999999999928e-02 -5.340899999999999814e-02 1.194749999999999979e-01 -1.918500000000000066e-02 5.354600000000000332e-02 -1.194800000000000029e-01
1.797400000000000039e-02 -5.559299999999999659e-02 1.429259999999999975e-01 -1.818399999999999878e-02 5.572400000000000270e-02 -1.429159999999999875e-01
-3.025500000000000064e-02 -1.145499999999999990e-02 4.433800000000000241e-02 3.016800000000000037e-02 1.118000000000000070e-02 -4.451900000000000301e-02
-3.182200000000000306e-02 -9.504000000000000295e-03 6.905500000000000527e-02 3.173800000000000232e-02 9.233999999999999153e-03 -6.922200000000000575e-02
-3.332800000000000346e-02 -7.539999999999999827e-03 9.411300000000000221e-02 3.324900000000000078e-02 7.274000000000000084e-03 -9.427699999999999969e-02
-3.486500000000000016e-02 -5.594000000000000014e-03 1.192730000000000040e-01 3.479100000000000248e-02 5.331999999999999934e-03 -1.194280000000000064e-01
-3.637300000000000255e-02 -3.664000000000000156e-03 1.436739999999999962e-01 3.630300000000000193e-02 3.406000000000000173e-03 -1.438149999999999984e-01
-6.146599999999999980e-02 3.497399999999999815e-02 1.456799999999999935e-02 6.160600000000000104e-02 -3.484600000000000197e-02 -1.441100000000000020e-02
-7.466499999999999526e-02 3.226300000000000001e-02 -2.220000000000000185e-03 7.479800000000000337e-02 -3.213599999999999790e-02 2.373000000000000109e-03
-8.798300000000000565e-02 2.941699999999999871e-02 -1.937099999999999933e-02 8.811199999999999588e-02 -2.929000000000000006e-02 1.951900000000000163e-02
-1.014079999999999981e-01 2.660900000000000071e-02 -3.650599999999999679e-02 1.015309999999999963e-01 -2.648299999999999960e-02 3.664599999999999802e-02
-1.144109999999999988e-01 2.390499999999999917e-02 -5.312999999999999667e-02 1.145209999999999978e-01 -2.378100000000000006e-02 5.325799999999999979e-02
-7.639600000000000557e-02 9.600000000000000200e-02 -1.086799999999999919e-02 7.631300000000000583e-02 -9.596200000000000563e-02 1.083100000000000035e-02
-9.705600000000000338e-02 8.754499999999999782e-02 -3.961000000000000111e-03 9.697000000000000064e-02 -8.750499999999999945e-02 3.917999999999999608e-03
-1.178329999999999933e-01 7.883800000000000530e-02 3.010000000000000089e-03 1.177480000000000054e-01 -7.879800000000000693e-02 -3.057999999999999954e-03
-1.387430000000000052e-01 7.020600000000000451e-02 9.981999999999999554e-03 1.386640000000000095e-01 -7.016500000000000514e-02 -1.003700000000000078e-02
-1.590600000000000069e-01 6.170099999999999890e-02 1.680900000000000102e-02 1.589859999999999884e-01 -6.166100000000000053e-02 -1.686800000000000105e-02
-5.673000000000000265e-02 1.336900000000000067e-02 -3.304399999999999699e-02 5.662799999999999778e-02 -1.331000000000000065e-02 3.287899999999999850e-02
-6.549699999999999966e-02 -1.368000000000000075e-03 -4.769600000000000228e-02 6.538700000000000068e-02 1.420000000000000038e-03 4.751899999999999874e-02
-7.427200000000000468e-02 -1.635700000000000001e-02 -6.254700000000000537e-02 7.416100000000000469e-02 1.640799999999999897e-02 6.236799999999999983e-02
-8.313299999999999856e-02 -3.135199999999999793e-02 -7.750500000000000445e-02 8.302299999999999958e-02 3.140500000000000236e-02 7.732500000000000484e-02
-9.175200000000000022e-02 -4.594499999999999973e-02 -9.195699999999999708e-02 9.164100000000000024e-02 4.599799999999999722e-02 9.177799999999999847e-02
-2.016199999999999937e-02 -3.640000000000000006e-03 5.496999999999999803e-02 2.010699999999999987e-02 3.527999999999999886e-03 -5.495699999999999891e-02
-3.640600000000000086e-02 -1.868099999999999969e-02 4.432400000000000229e-02 3.635000000000000037e-02 1.856899999999999870e-02 -4.431199999999999722e-02
-5.278100000000000153e-02 -3.392300000000000176e-02 3.341600000000000126e-02 5.272799999999999709e-02 3.381599999999999884e-02 -3.340400000000000313e-02
-6.920400000000000162e-02 -4.924200000000000105e-02 2.253799999999999901e-02 6.915799999999999725e-02 4.914199999999999818e-02 -2.252399999999999888e-02
-8.524800000000000433e-02 -6.407400000000000595e-02 1.197600000000000053e-02 8.521099999999999508e-02 6.398600000000000121e-02 -1.195799999999999988e-02
0.000000000000000000e+00 0.000000000000000000e+00 9.999999999999999547e-07 0.000000000000000000e+00 9.999999999999999547e-07 0.000000000000000000e+00
-1.047599999999999920e-02 6.684999999999999970e-03 1.166999999999999982e-02 1.047599999999999920e-02 -6.684999999999999970e-03 -1.166999999999999982e-02
-2.127899999999999930e-02 1.356699999999999920e-02 2.372000000000000150e-02 2.128100000000000130e-02 -1.356699999999999920e-02 -2.372099999999999903e-02
-3.211800000000000072e-02 2.046699999999999908e-02 3.580900000000000055e-02 3.211900000000000172e-02 -2.046699999999999908e-02 -3.580900000000000055e-02
-4.259600000000000192e-02 2.715400000000000105e-02 4.748499999999999943e-02 4.259399999999999992e-02 -2.715400000000000105e-02 -4.748299999999999743e-02
-2.486899999999999875e-02 1.551699999999999954e-02 -4.468199999999999950e-02 2.482200000000000031e-02 -1.570399999999999921e-02 4.474700000000000205e-02
-1.509100000000000025e-02 2.583699999999999886e-02 -5.629699999999999982e-02 1.504999999999999914e-02 -2.600999999999999840e-02 5.635699999999999737e-02
-5.079000000000000181e-03 3.631800000000000306e-02 -6.801999999999999713e-02 5.046000000000000138e-03 -3.647399999999999948e-02 6.807100000000000650e-02
4.951999999999999805e-03 4.686699999999999894e-02 -7.992699999999999805e-02 -4.977999999999999786e-03 -4.700399999999999717e-02 7.996499999999999442e-02
1.464099999999999950e-02 5.716000000000000247e-02 -9.143300000000000038e-02 -1.466100000000000042e-02 -5.728099999999999858e-02 9.146300000000000263e-02
4.165900000000000158e-02 1.503099999999999922e-02 -4.215700000000000003e-02 -4.166199999999999765e-02 -1.495600000000000054e-02 4.217900000000000121e-02
2.656999999999999987e-02 1.526100000000000026e-02 -3.487300000000000122e-02 -2.657100000000000087e-02 -1.517899999999999978e-02 3.489699999999999747e-02
1.093799999999999981e-02 1.546699999999999985e-02 -2.731600000000000000e-02 -1.093599999999999954e-02 -1.537900000000000031e-02 2.733899999999999872e-02
-4.773999999999999598e-03 1.569399999999999962e-02 -1.982499999999999887e-02 4.773999999999999598e-03 -1.560100000000000028e-02 1.984800000000000106e-02
-1.978399999999999950e-02 1.595699999999999896e-02 -1.257400000000000011e-02 1.978099999999999997e-02 -1.586100000000000010e-02 1.259300000000000003e-02
1.739999999999999880e-02 -4.297100000000000225e-02 -2.257199999999999832e-02 -1.737199999999999855e-02 4.296500000000000319e-02 2.247000000000000039e-02
2.560899999999999982e-02 -3.523099999999999843e-02 -1.162799999999999945e-02 -2.558200000000000057e-02 3.521699999999999831e-02 1.152099999999999999e-02
3.418999999999999817e-02 -2.707100000000000131e-02 -1.060000000000000016e-04 -3.416999999999999899e-02 2.705199999999999966e-02 -1.000000000000000082e-05
4.278699999999999865e-02 -1.904499999999999943e-02 1.134499999999999918e-02 -4.277299999999999852e-02 1.902399999999999924e-02 -1.146900000000000003e-02
5.103599999999999803e-02 -1.125699999999999965e-02 2.232500000000000109e-02 -5.102899999999999797e-02 1.123799999999999973e-02 -2.245399999999999827e-02
-5.720000000000000258e-03 7.352000000000000028e-03 -2.064600000000000116e-02 5.710999999999999931e-03 -7.352000000000000028e-03 2.055200000000000082e-02
8.078000000000000111e-03 -1.510000000000000112e-04 -2.216900000000000120e-02 -8.087999999999999703e-03 1.540000000000000028e-04 2.207800000000000040e-02
2.233100000000000016e-02 -7.842999999999999278e-03 -2.368100000000000066e-02 -2.234299999999999828e-02 7.853999999999999870e-03 2.359199999999999839e-02
3.672500000000000070e-02 -1.557500000000000030e-02 -2.524500000000000008e-02 -3.673799999999999982e-02 1.559199999999999996e-02 2.515799999999999981e-02
5.044099999999999973e-02 -2.304399999999999851e-02 -2.675800000000000053e-02 -5.045899999999999691e-02 2.306899999999999923e-02 2.667399999999999979e-02
-3.069999999999999812e-04 1.227699999999999972e-02 2.501400000000000151e-02 2.310000000000000042e-04 -1.240499999999999936e-02 -2.480699999999999919e-02
4.090000000000000211e-04 9.487999999999999906e-03 8.014999999999999555e-03 -4.870000000000000197e-04 -9.617999999999999813e-03 -7.798000000000000244e-03
1.154000000000000078e-03 6.590000000000000371e-03 -9.629000000000000406e-03 -1.231000000000000106e-03 -6.720000000000000279e-03 9.844999999999999585e-03
1.904000000000000093e-03 3.668999999999999952e-03 -2.738900000000000015e-02 -1.975999999999999892e-03 -3.795999999999999895e-03 2.759199999999999847e-02
2.626999999999999995e-03 9.089999999999999773e-04 -4.436699999999999672e-02 -2.693000000000000081e-03 -1.033999999999999980e-03 4.454999999999999932e-02
-7.348999999999999630e-03 1.617499999999999841e-02 1.616199999999999928e-02 7.361999999999999621e-03 -1.624600000000000002e-02 -1.619699999999999959e-02
-1.191299999999999998e-02 3.257299999999999779e-02 2.352599999999999830e-02 1.192600000000000084e-02 -3.264100000000000334e-02 -2.356000000000000108e-02
-1.650700000000000084e-02 4.919099999999999862e-02 3.093500000000000069e-02 1.651999999999999996e-02 -4.925500000000000017e-02 -3.096499999999999947e-02
-2.114999999999999866e-02 6.601700000000000623e-02 3.845099999999999907e-02 2.116399999999999879e-02 -6.607899999999999885e-02 -3.848000000000000032e-02
-2.566699999999999884e-02 8.225499999999999479e-02 4.574099999999999694e-02 2.568199999999999997e-02 -8.231099999999999528e-02 -4.576999999999999819e-02
9.615999999999999548e-03 -4.216999999999999915e-02 2.689499999999999877e-02 -9.653999999999999387e-03 4.207799999999999735e-02 -2.696199999999999986e-02
-6.088999999999999795e-03 -4.236999999999999794e-02 3.372800000000000104e-02 6.048000000000000424e-03 4.227999999999999814e-02 -3.379700000000000065e-02
-2.225399999999999948e-02 -4.248999999999999999e-02 4.067899999999999988e-02 2.221499999999999864e-02 4.240300000000000319e-02 -4.074900000000000050e-02
-3.849899999999999850e-02 -4.272000000000000103e-02 4.773100000000000259e-02 3.846200000000000313e-02 4.263000000000000123e-02 -4.779900000000000121e-02
-5.412499999999999950e-02 -4.293199999999999794e-02 5.453600000000000114e-02 5.409100000000000019e-02 4.284099999999999714e-02 -5.460199999999999776e-02
-2.399799999999999850e-02 -4.424399999999999861e-02 -4.370399999999999979e-02 2.399499999999999897e-02 4.432900000000000035e-02 4.365999999999999742e-02
-2.290700000000000028e-02 -5.530700000000000199e-02 -5.627399999999999763e-02 2.289899999999999922e-02 5.537899999999999767e-02 5.622300000000000214e-02
-2.174500000000000044e-02 -6.662999999999999479e-02 -6.905999999999999639e-02 2.173200000000000132e-02 6.669700000000000628e-02 6.901200000000000390e-02
-2.062100000000000044e-02 -7.810799999999999688e-02 -8.193699999999999595e-02 2.060599999999999932e-02 7.816900000000000237e-02 8.189399999999999458e-02
-1.954699999999999840e-02 -8.910500000000000365e-02 -9.441299999999999693e-02 1.952900000000000122e-02 8.915299999999999614e-02 9.436999999999999555e-02
8.434000000000000524e-03 -8.795999999999999999e-03 -1.879600000000000021e-02 -8.540000000000000716e-03 8.810000000000000123e-03 1.881299999999999986e-02
2.260200000000000056e-02 -1.523500000000000028e-02 -2.256000000000000019e-02 -2.270600000000000049e-02 1.524900000000000040e-02 2.257599999999999885e-02
3.708299999999999791e-02 -2.176099999999999909e-02 -2.634299999999999836e-02 -3.717600000000000071e-02 2.177300000000000069e-02 2.635799999999999949e-02
5.173599999999999727e-02 -2.834100000000000161e-02 -3.020499999999999921e-02 -5.182200000000000001e-02 2.835400000000000073e-02 3.022100000000000133e-02
6.583200000000000163e-02 -3.476200000000000123e-02 -3.395100000000000201e-02 -6.591299999999999937e-02 3.477600000000000136e-02 3.396799999999999820e-02
