2.900834106492314213e+00 3.879463061715985752e-07 0.000000000000000000e+00 3.879463061715985752e-07 2.900834365123185155e+00 1.293154353905328584e-07 0.000000000000000000e+00 1.293154353905328584e-07 2.900834365123185155e+00
2.887871009987025506e+00 -1.357812071600594854e-05 5.948510027964511274e-06 -1.357812071600594854e-05 2.887917563543766164e+00 -1.163838918514795620e-06 5.948510027964511274e-06 -1.163838918514795620e-06 2.887920020537038557e+00
2.886901273537032075e+00 -4.138093932497051468e-05 1.952663074397045982e-05 -4.138093932497051468e-05 2.887133265428122542e+00 -4.008778497106518504e-06 1.952663074397045982e-05 -4.008778497106518504e-06 2.887141929562293985e+00
2.886253273890289961e+00 -9.013285846720138885e-05 4.241546280809477162e-05 -9.013285846720138885e-05 2.886826658530811773e+00 -9.181395912727832839e-06 4.241546280809477162e-05 -9.181395912727832839e-06 2.886848642154828060e+00
2.885193533897264739e+00 -1.620322405443376458e-04 7.616679144502384565e-05 -1.620322405443376458e-04 2.886212410212706914e+00 -1.590579855303554020e-05 7.616679144502384565e-05 -1.590579855303554020e-05 2.886251592789629949e+00
4.220582596054450519e+00 2.675718482264137776e-01 6.913902839514830534e-01 2.675718482264137776e-01 4.364530440945210366e+00 4.239839558130244213e-02 6.913902839514830534e-01 4.239839558130244213e-02 3.758578150974400511e+00
4.218397580875236308e+00 2.675817244250153215e-01 6.913824079956362167e-01 2.675817244250153215e-01 4.362580329274505786e+00 4.240814676473182721e-02 6.913824079956362167e-01 4.240814676473182721e-02 3.756425764755122465e+00
4.218126422966795630e+00 2.676492326179880088e-01 6.913409029584752785e-01 2.676492326179880088e-01 4.362495068927084496e+00 4.237676795651675737e-02 6.913409029584752785e-01 4.237676795651675737e-02 3.756120477704679050e+00
4.217183183492760890e+00 2.677477445736592410e-01 6.913170250605905620e-01 2.677477445736592410e-01 4.361751353667836284e+00 4.231013486974930654e-02 6.913170250605905620e-01 4.231013486974930654e-02 3.755101479036309087e+00
4.215972786595796329e+00 2.678836360658097271e-01 6.912823958578989680e-01 2.678836360658097271e-01 4.360775110188347625e+00 4.219574598721231168e-02 6.912823958578989680e-01 4.219574598721231168e-02 3.753769942437509055e+00
5.855471598896647478e+00 7.431468746757231569e-01 4.653959341104033087e-01 7.431468746757231569e-01 5.910793504821683086e+00 7.415472016497358654e-01 4.653959341104033087e-01 7.415472016497358654e-01 5.817380610424853771e+00
5.850632647771549344e+00 7.434947856253213416e-01 4.650205250445139105e-01 7.434947856253213416e-01 5.906450954474156134e+00 7.416665195630344209e-01 4.650205250445139105e-01 7.416665195630344209e-01 5.813083252633666653e+00
5.851106930499059722e+00 7.440030225486002902e-01 4.647724442127557642e-01 7.440030225486002902e-01 5.907637557970637054e+00 7.419449678797402914e-01 4.647724442127557642e-01 7.419449678797402914e-01 5.814258259098494364e+00
5.852061354248421665e+00 7.445994925580659007e-01 4.646408119256397184e-01 7.445994925580659007e-01 5.909511614374401312e+00 7.423495488603039094e-01 4.646408119256397184e-01 7.423495488603039094e-01 5.816100035104872390e+00
5.852826040995373624e+00 7.452834783115542816e-01 4.646243130558649903e-01 7.452834783115542816e-01 5.911342271577234797e+00 7.428646005341419389e-01 4.646243130558649903e-01 7.428646005341419389e-01 5.817889803804351168e+00
3.237711391240313485e+00 -1.982928074015798126e-01 4.409745166540326444e-01 -1.982928074015798126e-01 2.826214631026478852e+00 2.589226522317624735e-01 4.409745166540326444e-01 2.589226522317624735e-01 3.540114743975090406e+00
3.236270681040604558e+00 -1.982745997789063797e-01 4.409368191817369387e-01 -1.982745997789063797e-01 2.824814695643742990e+00 2.589040599410043497e-01 4.409368191817369387e-01 2.589040599410043497e-01 3.538563377589697190e+00
3.236448525918407704e+00 -1.982753691150756781e-01 4.409037377264570234e-01 -1.982753691150756781e-01 2.825182951223447869e+00 2.589762493182236613e-01 4.409037377264570234e-01 2.589762493182236613e-01 3.538584406111658254e+00
3.236013594537363591e+00 -1.982888324980384420e-01 4.408703998257874623e-01 -1.982888324980384420e-01 2.824993822748495198e+00 2.590856232769591094e-01 4.408703998257874623e-01 2.590856232769591094e-01 3.537870590369242230e+00
3.235243489031894626e+00 -1.983288379788420153e-01 4.408105198272768699e-01 -1.983288379788420153e-01 2.824554788241214531e+00 2.592460298682581210e-01 4.408105198272768699e-01 2.592460298682581210e-01 3.536750308684047273e+00
2.598883979311323422e+00 -6.166481690403544103e-02 -3.069079977014907423e-01 -6.166481690403544103e-02 3.037572304941016377e+00 4.536852406732069971e-03 -3.069079977014907423e-01 4.536852406732069971e-03 2.708298495972846887e+00
2.578905834781836326e+00 -6.157861579956094844e-02 -3.069570700169897970e-01 -6.157861579956094844e-02 3.017178863222953922e+00 4.445588285579105819e-03 -3.069570700169897970e-01 4.445588285579105819e-03 2.687888437174403844e+00
2.579958812430017900e+00 -6.154213611528785294e-02 -3.069940689850247928e-01 -6.154213611528785294e-02 3.017552877352458029e+00 4.316156807926892734e-03 -3.069940689850247928e-01 4.316156807926892734e-03 2.688388507437108554e+00
2.580137965327871541e+00 -6.151007034299085796e-02 -3.070314574158811705e-01 -6.151007034299085796e-02 3.016955830847220188e+00 4.167771472965529390e-03 -3.070314574158811705e-01 4.167771472965529390e-03 2.687925695784319835e+00
2.579888189838400070e+00 -6.149306379978881909e-02 -3.070640424719400796e-01 -6.149306379978881909e-02 3.015851314285670437e+00 3.986022156302441999e-03 -3.070640424719400796e-01 3.986022156302441999e-03 2.686962034943184197e+00
8.725480249472286065e-01 -2.734179441868842542e-01 3.659370259539982961e-01 -2.734179441868842542e-01 6.533878939777828521e-01 -5.056969067819426511e-02 3.659370259539982961e-01 -5.056969067819426511e-02 7.793269104215588827e-01
8.751006077737647493e-01 -2.733783210990365919e-01 3.658754513993639490e-01 -2.733783210990365919e-01 6.554615482616584776e-01 -5.048906390710349718e-02 3.658754513993639490e-01 -5.048906390710349718e-02 7.812667850116210566e-01
8.761628378709777065e-01 -2.733587166444220173e-01 3.657821231506355741e-01 -2.733587166444220173e-01 6.562090026087225025e-01 -5.041534011298968304e-02 3.657821231506355741e-01 -5.041534011298968304e-02 7.818833589152021091e-01
8.756228870118407670e-01 -2.733225450450628702e-01 3.656980448910563397e-01 -2.733225450450628702e-01 6.556719509999158202e-01 -5.034741481953650816e-02 3.656980448910563397e-01 -5.034741481953650816e-02 7.812522887599694377e-01
8.759092224968446638e-01 -2.732876159815594841e-01 3.655809704015272610e-01 -2.732876159815594841e-01 6.561198161461803124e-01 -5.027451938265991432e-02 3.655809704015272610e-01 -5.027451938265991432e-02 7.816304338387667361e-01
1.544800167005890845e+00 -2.858604791573799431e-01 2.386780142746854905e-01 -2.858604791573799431e-01 1.418872634414886091e+00 -4.673775452432895605e-01 2.386780142746854905e-01 -4.673775452432895605e-01 1.964940180697726246e+00
1.547075360588299198e+00 -2.859526150958410784e-01 2.387180383412473295e-01 -2.859526150958410784e-01 1.421326593207340672e+00 -4.673669348363821974e-01 2.387180383412473295e-01 -4.673669348363821974e-01 1.967419120954545075e+00
1.547565722558155832e+00 -2.861137858336740281e-01 2.387842526527070020e-01 -2.861137858336740281e-01 1.421863694691168911e+00 -4.673872154875595153e-01 2.387842526527070020e-01 -4.673872154875595153e-01 1.968104499517179473e+00
1.547971066963805598e+00 -2.863020869790421918e-01 2.388848500549043963e-01 -2.863020869790421918e-01 1.422097123643130345e+00 -4.674213299604008109e-01 2.388848500549043963e-01 -4.674213299604008109e-01 1.968735482955795701e+00
1.548116523554699864e+00 -2.865345757683661621e-01 2.390063996530200630e-01 -2.865345757683661621e-01 1.421938236157416657e+00 -4.674597423195843704e-01 2.390063996530200630e-01 -4.674597423195843704e-01 1.969102817929106353e+00
1.998558554731048931e+00 4.214224923742633244e-01 4.276266953672180904e-02 4.214224923742633244e-01 2.545596248781756721e+00 5.392827040039630537e-01 4.276266953672180904e-02 5.392827040039630537e-01 2.245586723346784996e+00
1.999897726989622759e+00 4.213709401095097062e-01 4.277704088418508854e-02 4.213709401095097062e-01 2.546252056876090020e+00 5.391289701402733892e-01 4.277704088418508854e-02 5.391289701402733892e-01 2.246698327295985731e+00
2.001160164163575672e+00 4.213054120389660984e-01 4.278205107871356494e-02 4.213054120389660984e-01 2.546627162229603947e+00 5.389624470958135349e-01 4.278205107871356494e-02 5.389624470958135349e-01 2.247678611409650973e+00
2.001118500440654646e+00 4.212343463849963499e-01 4.277954598144932674e-02 4.212343463849963499e-01 2.545456622571081073e+00 5.387911775512740364e-01 4.277954598144932674e-02 5.387911775512740364e-01 2.247336336015020919e+00
2.001957444329726776e+00 4.211200348414123051e-01 4.277387655079867984e-02 4.211200348414123051e-01 2.544978280840835438e+00 5.385799582977311983e-01 4.277387655079867984e-02 5.385799582977311983e-01 2.247853440829250093e+00
4.259576439381826951e+00 4.551670089302018996e-01 6.074177225047944217e-01 4.551670089302018996e-01 4.053057620845732956e+00 6.104120678368148978e-01 6.074177225047944217e-01 6.104120678368148978e-01 4.538465388682305424e+00
4.257679684522014618e+00 4.553327181995429074e-01 6.074722534288901077e-01 4.553327181995429074e-01 4.051112186553679884e+00 6.104835307373420727e-01 6.074722534288901077e-01 6.104835307373420727e-01 4.536594405286620280e+00
4.258145189374055839e+00 4.555241989330112706e-01 6.076468021859269264e-01 4.555241989330112706e-01 4.051452320080231040e+00 6.106549669987113571e-01 6.076468021859269264e-01 6.106549669987113571e-01 4.537154032007647331e+00
4.258089662451346236e+00 4.557633631001066776e-01 6.079173403093512951e-01 4.557633631001066776e-01 4.051043960648647690e+00 6.109058341495168243e-01 6.079173403093512951e-01 6.109058341495168243e-01 4.537215908421519117e+00
4.257894944722383279e+00 4.560436122100138823e-01 6.082531163419677700e-01 4.560436122100138823e-01 4.050350123114434986e+00 6.112325216947840367e-01 6.082531163419677700e-01 6.112325216947840367e-01 4.537166979989625482e+00
3.573264935559659961e+00 1.763440064204883084e-01 2.651004135927338412e-01 1.763440064204883084e-01 3.743712817349101218e+00 1.814712751830628926e-02 2.651004135927338412e-01 1.814712751830628926e-02 3.498449316036535528e+00
3.572432715930805358e+00 1.762163918070793478e-01 2.652214383750630677e-01 1.762163918070793478e-01 3.742894411020009304e+00 1.821441983183176225e-02 2.652214383750630677e-01 1.821441983183176225e-02 3.497587949077904934e+00
3.573395464906046204e+00 1.761215996215481916e-01 2.653377742391240801e-01 1.761215996215481916e-01 3.743855892720042711e+00 1.827372831154912627e-02 2.653377742391240801e-01 1.827372831154912627e-02 3.498574015916966928e+00
3.573591005470584836e+00 1.760380861853649836e-01 2.654546170132681127e-01 1.760380861853649836e-01 3.744162066410207768e+00 1.832961514820587515e-02 2.654546170132681127e-01 1.832961514820587515e-02 3.498907562751616407e+00
3.573340591889555995e+00 1.759573607546385809e-01 2.655567593950035610e-01 1.759573607546385809e-01 3.744031917246383401e+00 1.837967251890749651e-02 2.655567593950035610e-01 1.837967251890749651e-02 3.498843058443547704e+00
3.962890775939377150e-03 -8.501320982386307708e-07 -4.250660491193153854e-07 -8.501320982386307708e-07 3.962890775939377150e-03 -1.983641562556804885e-06 -4.250660491193153854e-07 -1.983641562556804885e-06 3.962890775939377150e-03
6.712784736375268339e-03 -2.833773660795435973e-06 -4.108971808153381759e-06 -2.833773660795435973e-06 6.688414282892428397e-03 9.493141763664711421e-06 -4.108971808153381759e-06 9.493141763664711421e-06 6.623095800011092812e-03
7.909629042012219710e-03 -9.351453080624937738e-06 -1.700264196477261499e-05 -9.351453080624937738e-06 7.828016360581311478e-03 4.108971808153381590e-05 -1.700264196477261499e-05 4.108971808153381590e-05 7.594513410931768432e-03
7.717357499127250157e-03 -1.062665122798288564e-05 -2.096992508988622392e-05 -1.062665122798288564e-05 7.514884371063416425e-03 5.242481272471556826e-05 -2.096992508988622392e-05 5.242481272471556826e-05 6.924609317519726630e-03
8.702235534936703445e-03 -1.785277406301124693e-05 -3.244670841610773810e-05 -1.785277406301124693e-05 8.337528864792331795e-03 8.458814377474376239e-05 -3.244670841610773810e-05 8.458814377474376239e-05 7.271038147551969408e-03
4.237861914400427588e-01 -2.226867446099502768e-01 3.306487621171847469e-01 -2.226867446099502768e-01 3.141646749157727680e-01 -3.356656218305040795e-01 3.306487621171847469e-01 -3.356656218305040795e-01 6.555715830227657470e-01
4.265769007402944180e-01 -2.226157388097089185e-01 3.305891953653123383e-01 -2.226157388097089185e-01 3.168991654783088752e-01 -3.356141461128438475e-01 3.305891953653123383e-01 -3.356141461128438475e-01 6.583032835735045385e-01
4.278517966310718124e-01 -2.225123688726188820e-01 3.305152600526838347e-01 -2.225123688726188820e-01 3.180712494343556074e-01 -3.355993590503181800e-01 3.305152600526838347e-01 -3.355993590503181800e-01 6.594914100973858773e-01
4.280049682787436804e-01 -2.224229489945153126e-01 3.304621103279452021e-01 -2.224229489945153126e-01 3.180475343340785077e-01 -3.355489993373768631e-01 3.304621103279452021e-01 -3.355489993373768631e-01 6.595668799165028684e-01
4.288531318651236379e-01 -2.222859594152677698e-01 3.303758989634085763e-01 -2.222859594152677698e-01 3.186648244442317202e-01 -3.354803650471632204e-01 3.303758989634085763e-01 -3.354803650471632204e-01 6.603314826495535472e-01
-8.168140978627858040e-01 -3.165909741239038566e-01 -3.655773673649450606e-01 -3.165909741239038566e-01 -6.742762898328110710e-01 9.580934404538068994e-02 -3.655773673649450606e-01 9.580934404538068994e-02 -1.247425476640230541e-01
-8.201038115437889742e-01 -3.165573432219605521e-01 -3.655668850058977348e-01 -3.165573432219605521e-01 -6.778241316053535970e-01 9.585680583773363572e-02 -3.655668850058977348e-01 9.585680583773363572e-02 -1.279781024899488140e-01
-8.194967082489676979e-01 -3.165363785038659561e-01 -3.655370394002770418e-01 -3.165363785038659561e-01 -6.774536093306964268e-01 9.586554113693968038e-02 -3.655370394002770418e-01 9.586554113693968038e-02 -1.275050860379405016e-01
-8.189741917681250261e-01 -3.164985255406397302e-01 -3.655039908516141134e-01 -3.164985255406397302e-01 -6.771724782845812696e-01 9.587747937918797425e-02 -3.655039908516141134e-01 9.587747937918797425e-02 -1.273624094842414900e-01
-8.188056004934479715e-01 -3.164474240402841976e-01 -3.654313422798836641e-01 -3.164474240402841976e-01 -6.772655092211258276e-01 9.585564113117281404e-02 -3.654313422798836641e-01 9.585564113117281404e-02 -1.277065802729603627e-01
1.610842432451863981e+00 3.351102461815996247e-01 2.388187378692108453e-01 3.351102461815996247e-01 1.419017407373494244e+00 -5.052219124188584570e-02 2.388187378692108453e-01 -5.052219124188584570e-02 9.343294845906008339e-01
1.615206885118700031e+00 3.350768831613068488e-01 2.387700495591087990e-01 3.350768831613068488e-01 1.423417799879263423e+00 -5.051758009273968342e-02 2.387700495591087990e-01 -5.051758009273968342e-02 9.386436214829304570e-01
1.615920121393983555e+00 3.350688814613179689e-01 2.386907106693881564e-01 3.350688814613179689e-01 1.424212409374773225e+00 -5.053358349271751954e-02 2.386907106693881564e-01 -5.053358349271751954e-02 9.392933866464372450e-01
1.615566690374134140e+00 3.350639990681043567e-01 2.385949615135885826e-01 3.350639990681043567e-01 1.424050069800421703e+00 -5.056884522148223648e-02 2.385949615135885826e-01 -5.056884522148223648e-02 9.387868383505286740e-01
1.616132505498774075e+00 3.350512505969355792e-01 2.384512021578555074e-01 3.350512505969355792e-01 1.424868955639965629e+00 -5.061685542141573790e-02 2.384512021578555074e-01 -5.061685542141573790e-02 9.391526109754456675e-01
7.920966688829974567e-01 2.944021250044800975e-01 -1.054583087310203421e-01 2.944021250044800975e-01 -1.192279008861772960e-01 -5.048513822910989657e-02 -1.054583087310203421e-01 -5.048513822910989657e-02 2.834567516764894268e-01
7.961634878884534805e-01 2.943758956068798782e-01 -1.054796288830803924e-01 2.943758956068798782e-01 -1.149979546646300865e-01 -5.053577359025253346e-02 -1.054796288830803924e-01 -5.053577359025253346e-02 2.870357319394133966e-01
7.979846777196889507e-01 2.943742124369804203e-01 -1.054999671860324256e-01 2.943742124369804203e-01 -1.130022762204820064e-01 -5.060562514108088439e-02 -1.054999671860324256e-01 -5.060562514108088439e-02 2.881591075831568260e-01
7.985636881651094754e-01 2.943850127771687197e-01 -1.055218483947256564e-01 2.943850127771687197e-01 -1.122071187071368020e-01 -5.067898329586647405e-02 -1.055218483947256564e-01 -5.067898329586647405e-02 2.877230263150336587e-01
7.997285819997067557e-01 2.943866959470681777e-01 -1.055486388489590144e-01 2.943866959470681777e-01 -1.107499143666634822e-01 -5.075360382807668491e-02 -1.055486388489590144e-01 -5.075360382807668491e-02 2.876973579740665921e-01
1.689068793800792001e-01 3.411298462908026602e-02 -2.031033676474163496e-01 3.411298462908026602e-02 8.250621037681772352e-01 4.100683239799190472e-01 -2.031033676474163496e-01 4.100683239799190472e-01 2.184837027608650672e-01
1.711072072417530732e-01 3.411228526862584987e-02 -2.031570785303152549e-01 3.411228526862584987e-02 8.272369749093105851e-01 4.100329363409257466e-01 -2.031570785303152549e-01 4.100329363409257466e-01 2.200764262597450227e-01
1.727445499376245863e-01 3.410109550135523998e-02 -2.032043552970335676e-01 3.410109550135523998e-02 8.287758476532006702e-01 4.100044024343856841e-01 -2.032043552970335676e-01 4.100044024343856841e-01 2.207931308534273884e-01
1.736525995516343124e-01 3.409256330381140593e-02 -2.032584857962051184e-01 3.409256330381140593e-02 8.295578725133252451e-01 4.099838412370259699e-01 -2.032584857962051184e-01 4.099838412370259699e-01 2.203732348365978755e-01
1.750208283446477164e-01 3.408640893181257708e-02 -2.033100985977407960e-01 3.408640893181257708e-02 8.307632901925513513e-01 4.099578250281217806e-01 -2.033100985977407960e-01 4.099578250281217806e-01 2.201494394911857333e-01
-7.774022232577691705e-02 -3.696140944883080648e-01 -1.390178313084310391e-01 -3.696140944883080648e-01 -5.992099895923287400e-01 -3.034113644359376361e-01 -1.390178313084310391e-01 -3.034113644359376361e-01 -2.065617125870143900e-01
-7.665279076378388179e-02 -3.695862226792148708e-01 -1.390003036759084876e-01 -3.695862226792148708e-01 -5.977244509014834062e-01 -3.034158181786277275e-01 -1.390003036759084876e-01 -3.034158181786277275e-01 -2.051439857203546935e-01
-7.598128130140371916e-02 -3.696158185177365607e-01 -1.389204236457237951e-01 -3.696158185177365607e-01 -5.965256757722364744e-01 -3.034873653999082821e-01 -1.389204236457237951e-01 -3.034873653999082821e-01 -2.041322677840942956e-01
-7.591548084488464188e-02 -3.696849233639935006e-01 -1.388774665791316365e-01 -3.696849233639935006e-01 -5.958264381698821222e-01 -3.036038810554474998e-01 -1.388774665791316365e-01 -3.036038810554474998e-01 -2.038101616192127541e-01
-7.563877412161887359e-02 -3.697642287177020370e-01 -1.388381012405154324e-01 -3.697642287177020370e-01 -5.948355522558821384e-01 -3.037316029022716357e-01 -1.388381012405154324e-01 -3.037316029022716357e-01 -2.033336111513661670e-01
8.563133627135920412e-01 -3.257150730801028904e-01 -1.005459246536393875e-01 -3.257150730801028904e-01 -1.597961168377145299e-03 3.038420799923988169e-01 -1.005459246536393875e-01 3.038420799923988169e-01 6.116756392023189326e-01
8.575393280244948402e-01 -3.256801373309035075e-01 -1.005916206135921143e-01 -3.256801373309035075e-01 5.452771735030713298e-04 3.038353723285525110e-01 -1.005916206135921143e-01 3.038353723285525110e-01 6.134607162434075889e-01
8.582033867452755205e-01 -3.256670014892045772e-01 -1.006599549390259779e-01 -3.256670014892045772e-01 2.236866149734409014e-03 3.038295031226870280e-01 -1.006599549390259779e-01 3.038295031226870280e-01 6.147935849468603164e-01
8.577089760226067616e-01 -3.256643463722654341e-01 -1.007141752217833308e-01 -3.256643463722654341e-01 2.902741529473551723e-03 3.038411017914212087e-01 -1.007141752217833308e-01 3.038411017914212087e-01 6.151123387225549966e-01
8.574160747013195305e-01 -3.256461797826817883e-01 -1.007626660416719999e-01 -3.256461797826817883e-01 3.883877109987407192e-03 3.038500453432162463e-01 -1.007626660416719999e-01 3.038500453432162463e-01 6.157526411338801742e-01
-1.658929447087409692e-01 7.241796926435480064e-02 -3.554322336135696259e-01 7.241796926435480064e-02 6.284535910989234864e-02 -3.538929321751885237e-01 -3.554322336135696259e-01 -3.538929321751885237e-01 6.452105952399808109e-01
-1.639268587594068238e-01 7.236973387018892645e-02 -3.553816005536118983e-01 7.236973387018892645e-02 6.512257745551279509e-02 -3.539208579297056234e-01 -3.553816005536118983e-01 -3.539208579297056234e-01 6.471680778002970591e-01
-1.628070077954389128e-01 7.233969252820843243e-02 -3.553316726894752975e-01 7.233969252820843243e-02 6.648995215270034342e-02 -3.539181781855852971e-01 -3.553316726894752975e-01 -3.539181781855852971e-01 6.482298206286031261e-01
-1.625761266835981655e-01 7.227834049176937170e-02 -3.553134786372899590e-01 7.227834049176937170e-02 6.686539840787449063e-02 -3.539551304466129200e-01 -3.553134786372899590e-01 -3.539551304466129200e-01 6.483147262054681503e-01
-1.618595066901572233e-01 7.220119206893682584e-02 -3.552897840576996757e-01 7.220119206893682584e-02 6.765648708002765244e-02 -3.539815047703235296e-01 -3.552897840576996757e-01 -3.539815047703235296e-01 6.488055424969806362e-01
2.393753213714892580e-01 -6.965542959393078437e-02 -1.092144035184341305e-01 -6.965542959393078437e-02 1.200887298280825410e+00 -3.849943881814290036e-01 -1.092144035184341305e-01 -3.849943881814290036e-01 1.169331231108101443e+00
2.355743474142461824e-01 -6.960648173036849962e-02 -1.092530102840607170e-01 -6.960648173036849962e-02 1.197238131641278125e+00 -3.849709483594414006e-01 -1.092530102840607170e-01 -3.849709483594414006e-01 1.165847522035525330e+00
2.362116348096964247e-01 -6.953850624660454227e-02 -1.092814138330574225e-01 -6.953850624660454227e-02 1.197981311879589894e+00 -3.849608830241173507e-01 -1.092814138330574225e-01 -3.849608830241173507e-01 1.166797799995162643e+00
2.362046028631001882e-01 -6.949024778957131609e-02 -1.093318783909836001e-01 -6.949024778957131609e-02 1.198062661850017419e+00 -3.849774287808144235e-01 -1.093318783909836001e-01 -3.849774287808144235e-01 1.167123613520789638e+00
2.360773384178382894e-01 -6.942103137405508662e-02 -1.093728291388089274e-01 -6.942103137405508662e-02 1.197996340941923199e+00 -3.849702589529123697e-01 -1.093728291388089274e-01 -3.849702589529123697e-01 1.167324920227271301e+00
-1.738716899798293136e+00 6.193081976856197308e-07 -1.548270494214049327e-07 6.193081976856197308e-07 -1.738716590144194107e+00 -1.548270494214049327e-07 -1.548270494214049327e-07 -1.548270494214049327e-07 -1.738715970835996494e+00
-1.742207320800449377e+00 1.238616395371239462e-06 2.322405741321073726e-06 1.238616395371239462e-06 -1.742181619510245527e+00 -1.548270494214049221e-06 2.322405741321073726e-06 -1.548270494214049221e-06 -1.742218313520958350e+00
-1.743082248456729655e+00 -1.548270494214049221e-06 -1.857924593056859192e-06 -1.548270494214049221e-06 -1.742989507054126141e+00 1.703097543635454207e-06 -1.857924593056859192e-06 1.703097543635454207e-06 -1.743119406948590910e+00
-1.743005144586117883e+00 2.864300414295991112e-05 4.737707712294990316e-05 2.864300414295991112e-05 -1.742763459561970985e+00 -3.112023693370238750e-05 4.737707712294990316e-05 -3.112023693370238750e-05 -1.743103459762500362e+00
-1.742582002260049112e+00 5.635704598939139529e-05 1.014117173710202345e-04 5.635704598939139529e-05 -1.742136255184764781e+00 -6.332426321335461435e-05 1.014117173710202345e-04 -6.332426321335461435e-05 -1.742763304734921581e+00
-1.306384293898080751e+00 -7.104855863050750509e-02 -1.505915420915607261e-01 -7.104855863050750509e-02 -1.911097071188803342e+00 1.575763630561174619e-02 -1.505915420915607261e-01 1.575763630561174619e-02 -1.395844213524938482e+00
-1.304184519924533880e+00 -7.103251526958352657e-02 -1.506529652448125034e-01 -7.103251526958352657e-02 -1.908958414780681068e+00 1.579415405095297570e-02 -1.506529652448125034e-01 1.579415405095297570e-02 -1.394143158885256861e+00
-1.303274173787533741e+00 -7.097689828504709364e-02 -1.506670222848601470e-01 -7.097689828504709364e-02 -1.908173359652801437e+00 1.580515521272941523e-02 -1.506670222848601470e-01 1.580515521272941523e-02 -1.393778592607498812e+00
-1.302665748423731173e+00 -7.095382640409929331e-02 -1.506292821882104505e-01 -7.095382640409929331e-02 -1.907642706391001974e+00 1.585710514334037063e-02 -1.506292821882104505e-01 1.585710514334037063e-02 -1.393759034986562950e+00
-1.301705133089169353e+00 -7.091960056746147989e-02 -1.506008625202879814e-01 -7.091960056746147989e-02 -1.906719219977435431e+00 1.589942905739694448e-02 -1.506008625202879814e-01 1.589942905739694448e-02 -1.393417846177579689e+00
-1.803986238949692344e+00 -1.757433319904947444e-01 -2.201917868642740417e-01 -1.757433319904947444e-01 -1.869144993110011921e+00 1.679301704237814996e-01 -2.201917868642740417e-01 1.679301704237814996e-01 -1.864912909560489496e+00
-1.802309989665049850e+00 -1.757344141064901832e-01 -2.202454506224066078e-01 -1.757344141064901832e-01 -1.867850648296510929e+00 1.679389318536806674e-01 -2.202454506224066078e-01 1.679389318536806674e-01 -1.863391393386031103e+00
-1.801494707322108590e+00 -1.757035926477376331e-01 -2.202948901196949139e-01 -1.757035926477376331e-01 -1.867370334193108716e+00 1.679145250132471900e-01 -2.202948901196949139e-01 1.679145250132471900e-01 -1.862700179148626400e+00
-1.801699818654212804e+00 -1.756926408603636802e-01 -2.202759591729484268e-01 -1.756926408603636802e-01 -1.867538678810457542e+00 1.679103007524029301e-01 -2.202759591729484268e-01 1.679103007524029301e-01 -1.862744768568649345e+00
-1.801905555802738590e+00 -1.756893553241514749e-01 -2.202773672598965227e-01 -1.756893553241514749e-01 -1.867582642414058913e+00 1.679207831774609250e-01 -2.202773672598965227e-01 1.679207831774609250e-01 -1.862691887081043385e+00
-2.048945664465881666e+00 4.414853162737877174e-02 6.001608545471991824e-02 4.414853162737877174e-02 -2.259895576048131183e+00 2.103315333365410322e-01 6.001608545471991824e-02 2.103315333365410322e-01 -1.990475684413092861e+00
-2.045878540324701067e+00 4.421979692391259098e-02 6.004916150042059059e-02 4.421979692391259098e-02 -2.256589569354667812e+00 2.104651158206268247e-01 6.004916150042059059e-02 2.104651158206268247e-01 -1.987215217202840556e+00
-2.043725082025628748e+00 4.424967721640547108e-02 6.006545984178034148e-02 4.424967721640547108e-02 -2.254098160153871433e+00 2.104948363254593169e-01 6.006545984178034148e-02 2.104948363254593169e-01 -1.984818721872315672e+00
-2.044650252579285343e+00 4.427795963229444465e-02 6.005043980170370749e-02 4.427795963229444465e-02 -2.254678988299387843e+00 2.104847697028547626e-01 6.005043980170370749e-02 2.104847697028547626e-01 -1.985567966211883029e+00
-2.044447801613571425e+00 4.434043660750683347e-02 6.006226408857254923e-02 4.434043660750683347e-02 -2.254114138919909749e+00 2.105136912693852946e-01 6.006226408857254923e-02 2.105136912693852946e-01 -1.985247112589820340e+00
-1.508153644887870071e+00 -1.637861778527563081e-02 3.427761096959249659e-02 -1.637861778527563081e-02 -1.806963053244049933e+00 -3.767055668223511736e-03 3.427761096959249659e-02 -3.767055668223511736e-03 -2.022226885325395074e+00
-1.508997762531725240e+00 -1.638110459844110273e-02 3.429952601061322937e-02 -1.638110459844110273e-02 -1.807593460381497597e+00 -3.767832797337722361e-03 3.429952601061322937e-02 -3.767832797337722361e-03 -2.022870503657783647e+00
-1.507528055950930534e+00 -1.639897856806794146e-02 3.430776357922385444e-02 -1.639897856806794146e-02 -1.806060184639160182e+00 -3.767677371514880150e-03 3.430776357922385444e-02 -3.767677371514880150e-03 -2.021366758821786735e+00
-1.507625507941852572e+00 -1.635779072501479525e-02 3.433527394986690684e-02 -1.635779072501479525e-02 -1.805950920285702255e+00 -3.775448662656984231e-03 3.433527394986690684e-02 -3.775448662656984231e-03 -2.021230761226800343e+00
-1.507356310416690048e+00 -1.632064395335553614e-02 3.436573741114395258e-02 -1.632064395335553614e-02 -1.805415322900188579e+00 -3.783686231267614514e-03 3.436573741114395258e-02 -3.783686231267614514e-03 -2.020639832248354306e+00
-1.983820604485944772e+00 -8.825884946526811603e-02 1.062106939477546266e-02 -8.825884946526811603e-02 -1.662835058061683746e+00 -8.690128688553534764e-02 1.062106939477546266e-02 -8.690128688553534764e-02 -2.087409966221820845e+00
-1.985753650427506178e+00 -8.829341303054311085e-02 1.063646589203432261e-02 -8.829341303054311085e-02 -1.664918298405076325e+00 -8.693506491523589341e-02 1.063646589203432261e-02 -8.693506491523589341e-02 -2.089114421311222713e+00
-1.984279985689872294e+00 -8.828964245978584979e-02 1.063709432049386901e-02 -8.828964245978584979e-02 -1.663429865598643254e+00 -8.691102752665828823e-02 1.063709432049386901e-02 -8.691102752665828823e-02 -2.087552148160793042e+00
-1.984186978277859614e+00 -8.829199906650914143e-02 1.063850828452784711e-02 -8.829199906650914143e-02 -1.663336386865285954e+00 -8.691951131086214644e-02 1.063850828452784711e-02 -8.691951131086214644e-02 -2.087793150475028892e+00
-1.983765145674389885e+00 -8.830095417205764685e-02 1.063740853472364134e-02 -8.830095417205764685e-02 -1.662954459468997115e+00 -8.692689534526180928e-02 1.063740853472364134e-02 -8.692689534526180928e-02 -2.087902811241219236e+00
-1.582977338626021746e+00 6.621252442425855367e-02 -2.064459105956928039e-02 6.621252442425855367e-02 -1.450966078165530027e+00 -2.195745362965613179e-01 -2.064459105956928039e-02 -2.195745362965613179e-01 -1.576491513363694308e+00