2.384876038999999892e+00 0.000000000000000000e+00 0.000000000000000000e+00 -1.192438019999999987e+00 2.065363234999999964e+00 0.000000000000000000e+00 0.000000000000000000e+00 0.000000000000000000e+00 3.767328582000000203e+00
2.384876038999999892e+00 0.000000000000000000e+00 0.000000000000000000e+00 -1.192438019999999987e+00 2.065363234999999964e+00 0.000000000000000000e+00 0.000000000000000000e+00 0.000000000000000000e+00 3.767328582000000203e+00
2.384876038999999892e+00 0.000000000000000000e+00 0.000000000000000000e+00 -1.192438019999999987e+00 2.065363234999999964e+00 0.000000000000000000e+00 0.000000000000000000e+00 0.000000000000000000e+00 3.767328582000000203e+00
2.384876038999999892e+00 0.000000000000000000e+00 0.000000000000000000e+00 -1.192438019999999987e+00 2.065363234999999964e+00 0.000000000000000000e+00 0.000000000000000000e+00 0.000000000000000000e+00 3.767328582000000203e+00
2.384876038999999892e+00 0.000000000000000000e+00 0.000000000000000000e+00 -1.192438019999999987e+00 2.065363234999999964e+00 0.000000000000000000e+00 0.000000000000000000e+00 0.000000000000000000e+00 3.767328582000000203e+00
2.364711338000000218e+00 0.000000000000000000e+00 0.000000000000000000e+00 -1.189958697000000010e+00 2.034648565999999992e+00 0.000000000000000000e+00 -7.556221800000000044e-02 3.078453399999999882e-02 3.712685737000000152e+00
2.364711338000000218e+00 0.000000000000000000e+00 0.000000000000000000e+00 -1.189958697000000010e+00 2.034648565999999992e+00 0.000000000000000000e+00 -7.556221800000000044e-02 3.078453399999999882e-02 3.712685737000000152e+00
2.364711338000000218e+00 0.000000000000000000e+00 0.000000000000000000e+00 -1.189958697000000010e+00 2.034648565999999992e+00 0.000000000000000000e+00 -7.556221800000000044e-02 3.078453399999999882e-02 3.712685737000000152e+00
2.364711338000000218e+00 0.000000000000000000e+00 0.000000000000000000e+00 -1.189958697000000010e+00 2.034648565999999992e+00 0.000000000000000000e+00 -7.556221800000000044e-02 3.078453399999999882e-02 3.712685737000000152e+00
2.364711338000000218e+00 0.000000000000000000e+00 0.000000000000000000e+00 -1.189958697000000010e+00 2.034648565999999992e+00 0.000000000000000000e+00 -7.556221800000000044e-02 3.078453399999999882e-02 3.712685737000000152e+00
2.386998097999999846e+00 0.000000000000000000e+00 0.000000000000000000e+00 -1.248181648999999949e+00 2.032218133000000204e+00 0.000000000000000000e+00 2.408903500000000170e-02 2.095930400000000152e-02 3.867473599999999845e+00
2.386998097999999846e+00 0.000000000000000000e+00 0.000000000000000000e+00 -1.248181648999999949e+00 2.032218133000000204e+00 0.000000000000000000e+00 2.408903500000000170e-02 2.095930400000000152e-02 3.867473599999999845e+00
2.386998097999999846e+00 0.000000000000000000e+00 0.000000000000000000e+00 -1.248181648999999949e+00 2.032218133000000204e+00 0.000000000000000000e+00 2.408903500000000170e-02 2.095930400000000152e-02 3.867473599999999845e+00
2.386998097999999846e+00 0.000000000000000000e+00 0.000000000000000000e+00 -1.248181648999999949e+00 2.032218133000000204e+00 0.000000000000000000e+00 2.408903500000000170e-02 2.095930400000000152e-02 3.867473599999999845e+00
2.386998097999999846e+00 0.000000000000000000e+00 0.000000000000000000e+00 -1.248181648999999949e+00 2.032218133000000204e+00 0.000000000000000000e+00 2.408903500000000170e-02 2.095930400000000152e-02 3.867473599999999845e+00
2.426856193999999967e+00 0.000000000000000000e+00 0.000000000000000000e+00 -1.170570643000000022e+00 2.025576977000000056e+00 0.000000000000000000e+00 2.282858100000000057e-02 1.295626000000000069e-02 3.724197792000000007e+00
2.426856193999999967e+00 0.000000000000000000e+00 0.000000000000000000e+00 -1.170570643000000022e+00 2.025576977000000056e+00 0.000000000000000000e+00 2.282858100000000057e-02 1.295626000000000069e-02 3.724197792000000007e+00
2.426856193999999967e+00 0.000000000000000000e+00 0.000000000000000000e+00 -1.170570643000000022e+00 2.025576977000000056e+00 0.000000000000000000e+00 2.282858100000000057e-02 1.295626000000000069e-02 3.724197792000000007e+00
2.426856193999999967e+00 0.000000000000000000e+00 0.000000000000000000e+00 -1.170570643000000022e+00 2.025576977000000056e+00 0.000000000000000000e+00 2.282858100000000057e-02 1.295626000000000069e-02 3.724197792000000007e+00
2.426856193999999967e+00 0.000000000000000000e+00 0.000000000000000000e+00 -1.170570643000000022e+00 2.025576977000000056e+00 0.000000000000000000e+00 2.282858100000000057e-02 1.295626000000000069e-02 3.724197792000000007e+00
2.394215215000000008e+00 0.000000000000000000e+00 0.000000000000000000e+00 -1.232733835999999972e+00 2.123962264999999849e+00 0.000000000000000000e+00 -8.749966000000000688e-02 -9.818523799999999413e-02 3.767454888000000057e+00
2.394215215000000008e+00 0.000000000000000000e+00 0.000000000000000000e+00 -1.232733835999999972e+00 2.123962264999999849e+00 0.000000000000000000e+00 -8.749966000000000688e-02 -9.818523799999999413e-02 3.767454888000000057e+00
2.394215215000000008e+00 0.000000000000000000e+00 0.000000000000000000e+00 -1.232733835999999972e+00 2.123962264999999849e+00 0.000000000000000000e+00 -8.749966000000000688e-02 -9.818523799999999413e-02 3.767454888000000057e+00
2.394215215000000008e+00 0.000000000000000000e+00 0.000000000000000000e+00 -1.232733835999999972e+00 2.123962264999999849e+00 0.000000000000000000e+00 -8.749966000000000688e-02 -9.818523799999999413e-02 3.767454888000000057e+00
2.394215215000000008e+00 0.000000000000000000e+00 0.000000000000000000e+00 -1.232733835999999972e+00 2.123962264999999849e+00 0.000000000000000000e+00 -8.749966000000000688e-02 -9.818523799999999413e-02 3.767454888000000057e+00
2.315566814999999945e+00 0.000000000000000000e+00 0.000000000000000000e+00 -1.192513578000000019e+00 2.122669394999999959e+00 0.000000000000000000e+00 -6.519378700000000304e-02 -5.884702800000000261e-02 3.679946917000000095e+00
2.315566814999999945e+00 0.000000000000000000e+00 0.000000000000000000e+00 -1.192513578000000019e+00 2.122669394999999959e+00 0.000000000000000000e+00 -6.519378700000000304e-02 -5.884702800000000261e-02 3.679946917000000095e+00
2.315566814999999945e+00 0.000000000000000000e+00 0.000000000000000000e+00 -1.192513578000000019e+00 2.122669394999999959e+00 0.000000000000000000e+00 -6.519378700000000304e-02 -5.884702800000000261e-02 3.679946917000000095e+00
2.315566814999999945e+00 0.000000000000000000e+00 0.000000000000000000e+00 -1.192513578000000019e+00 2.122669394999999959e+00 0.000000000000000000e+00 -6.519378700000000304e-02 -5.884702800000000261e-02 3.679946917000000095e+00
2.315566814999999945e+00 0.000000000000000000e+00 0.000000000000000000e+00 -1.192513578000000019e+00 2.122669394999999959e+00 0.000000000000000000e+00 -6.519378700000000304e-02 -5.884702800000000261e-02 3.679946917000000095e+00
2.356906436000000049e+00 0.000000000000000000e+00 0.000000000000000000e+00 -1.129628392000000092e+00 2.039521317999999805e+00 0.000000000000000000e+00 8.978631800000000385e-02 7.860963699999999610e-02 3.776802603999999786e+00
2.356906436000000049e+00 0.000000000000000000e+00 0.000000000000000000e+00 -1.129628392000000092e+00 2.039521317999999805e+00 0.000000000000000000e+00 8.978631800000000385e-02 7.860963699999999610e-02 3.776802603999999786e+00
2.356906436000000049e+00 0.000000000000000000e+00 0.000000000000000000e+00 -1.129628392000000092e+00 2.039521317999999805e+00 0.000000000000000000e+00 8.978631800000000385e-02 7.860963699999999610e-02 3.776802603999999786e+00
2.356906436000000049e+00 0.000000000000000000e+00 0.000000000000000000e+00 -1.129628392000000092e+00 2.039521317999999805e+00 0.000000000000000000e+00 8.978631800000000385e-02 7.860963699999999610e-02 3.776802603999999786e+00
2.356906436000000049e+00 0.000000000000000000e+00 0.000000000000000000e+00 -1.129628392000000092e+00 2.039521317999999805e+00 0.000000000000000000e+00 8.978631800000000385e-02 7.860963699999999610e-02 3.776802603999999786e+00
2.328999576999999821e+00 0.000000000000000000e+00 0.000000000000000000e+00 -1.149339096000000060e+00 2.076179574000000194e+00 0.000000000000000000e+00 -6.744268700000000116e-02 9.716685099999999853e-02 3.864459232999999827e+00
2.328999576999999821e+00 0.000000000000000000e+00 0.000000000000000000e+00 -1.149339096000000060e+00 2.076179574000000194e+00 0.000000000000000000e+00 -6.744268700000000116e-02 9.716685099999999853e-02 3.864459232999999827e+00
2.328999576999999821e+00 0.000000000000000000e+00 0.000000000000000000e+00 -1.149339096000000060e+00 2.076179574000000194e+00 0.000000000000000000e+00 -6.744268700000000116e-02 9.716685099999999853e-02 3.864459232999999827e+00
2.328999576999999821e+00 0.000000000000000000e+00 0.000000000000000000e+00 -1.149339096000000060e+00 2.076179574000000194e+00 0.000000000000000000e+00 -6.744268700000000116e-02 9.716685099999999853e-02 3.864459232999999827e+00
2.328999576999999821e+00 0.000000000000000000e+00 0.000000000000000000e+00 -1.149339096000000060e+00 2.076179574000000194e+00 0.000000000000000000e+00 -6.744268700000000116e-02 9.716685099999999853e-02 3.864459232999999827e+00
2.384634144000000067e+00 0.000000000000000000e+00 0.000000000000000000e+00 -1.172708478999999970e+00 2.051956194000000178e+00 0.000000000000000000e+00 -8.407399999999999769e-04 1.084066719999999956e-01 3.774809445999999902e+00
2.384634144000000067e+00 0.000000000000000000e+00 0.000000000000000000e+00 -1.172708478999999970e+00 2.051956194000000178e+00 0.000000000000000000e+00 -8.407399999999999769e-04 1.084066719999999956e-01 3.774809445999999902e+00
2.384634144000000067e+00 0.000000000000000000e+00 0.000000000000000000e+00 -1.172708478999999970e+00 2.051956194000000178e+00 0.000000000000000000e+00 -8.407399999999999769e-04 1.084066719999999956e-01 3.774809445999999902e+00
2.384634144000000067e+00 0.000000000000000000e+00 0.000000000000000000e+00 -1.172708478999999970e+00 2.051956194000000178e+00 0.000000000000000000e+00 -8.407399999999999769e-04 1.084066719999999956e-01 3.774809445999999902e+00
2.384634144000000067e+00 0.000000000000000000e+00 0.000000000000000000e+00 -1.172708478999999970e+00 2.051956194000000178e+00 0.000000000000000000e+00 -8.407399999999999769e-04 1.084066719999999956e-01 3.774809445999999902e+00
2.426480202000000030e+00 0.000000000000000000e+00 0.000000000000000000e+00 -1.152725948000000056e+00 2.050901447000000211e+00 0.000000000000000000e+00 -9.133541800000000155e-02 -5.435894999999999616e-03 3.765097050000000056e+00
2.426480202000000030e+00 0.000000000000000000e+00 0.000000000000000000e+00 -1.152725948000000056e+00 2.050901447000000211e+00 0.000000000000000000e+00 -9.133541800000000155e-02 -5.435894999999999616e-03 3.765097050000000056e+00
2.426480202000000030e+00 0.000000000000000000e+00 0.000000000000000000e+00 -1.152725948000000056e+00 2.050901447000000211e+00 0.000000000000000000e+00 -9.133541800000000155e-02 -5.435894999999999616e-03 3.765097050000000056e+00
2.426480202000000030e+00 0.000000000000000000e+00 0.000000000000000000e+00 -1.152725948000000056e+00 2.050901447000000211e+00 0.000000000000000000e+00 -9.133541800000000155e-02 -5.435894999999999616e-03 3.765097050000000056e+00
2.426480202000000030e+00 0.000000000000000000e+00 0.000000000000000000e+00 -1.152725948000000056e+00 2.050901447000000211e+00 0.000000000000000000e+00 -9.133541800000000155e-02 -5.435894999999999616e-03 3.765097050000000056e+00
2.458635092000000189e+00 0.000000000000000000e+00 0.000000000000000000e+00 -1.229317546000000094e+00 2.129240448000000008e+00 0.000000000000000000e+00 0.000000000000000000e+00 0.000000000000000000e+00 3.883843898999999933e+00
2.458635092000000189e+00 0.000000000000000000e+00 0.000000000000000000e+00 -1.229317546000000094e+00 2.129240448000000008e+00 0.000000000000000000e+00 0.000000000000000000e+00 0.000000000000000000e+00 3.883843898999999933e+00
2.458635092000000189e+00 0.000000000000000000e+00 0.000000000000000000e+00 -1.229317546000000094e+00 2.129240448000000008e+00 0.000000000000000000e+00 0.000000000000000000e+00 0.000000000000000000e+00 3.883843898999999933e+00
2.458635092000000189e+00 0.000000000000000000e+00 0.000000000000000000e+00 -1.229317546000000094e+00 2.129240448000000008e+00 0.000000000000000000e+00 0.000000000000000000e+00 0.000000000000000000e+00 3.883843898999999933e+00
2.458635092000000189e+00 0.000000000000000000e+00 0.000000000000000000e+00 -1.229317546000000094e+00 2.129240448000000008e+00 0.000000000000000000e+00 0.000000000000000000e+00 0.000000000000000000e+00 3.883843898999999933e+00
2.415943534000000170e+00 0.000000000000000000e+00 0.000000000000000000e+00 -1.270410577000000041e+00 2.150370103000000199e+00 0.000000000000000000e+00 -4.941469700000000048e-02 -1.594070399999999998e-02 3.812846551999999889e+00
2.415943534000000170e+00 0.000000000000000000e+00 0.000000000000000000e+00 -1.270410577000000041e+00 2.150370103000000199e+00 0.000000000000000000e+00 -4.941469700000000048e-02 -1.594070399999999998e-02 3.812846551999999889e+00
2.415943534000000170e+00 0.000000000000000000e+00 0.000000000000000000e+00 -1.270410577000000041e+00 2.150370103000000199e+00 0.000000000000000000e+00 -4.941469700000000048e-02 -1.594070399999999998e-02 3.812846551999999889e+00
2.415943534000000170e+00 0.000000000000000000e+00 0.000000000000000000e+00 -1.270410577000000041e+00 2.150370103000000199e+00 0.000000000000000000e+00 -4.941469700000000048e-02 -1.594070399999999998e-02 3.812846551999999889e+00
2.415943534000000170e+00 0.000000000000000000e+00 0.000000000000000000e+00 -1.270410577000000041e+00 2.150370103000000199e+00 0.000000000000000000e+00 -4.941469700000000048e-02 -1.594070399999999998e-02 3.812846551999999889e+00
2.429549608999999943e+00 0.000000000000000000e+00 0.000000000000000000e+00 -1.267494904999999950e+00 2.075672057999999875e+00 0.000000000000000000e+00 -1.328359599999999995e-02 4.822211600000000237e-02 3.874684546000000118e+00
2.429549608999999943e+00 0.000000000000000000e+00 0.000000000000000000e+00 -1.267494904999999950e+00 2.075672057999999875e+00 0.000000000000000000e+00 -1.328359599999999995e-02 4.822211600000000237e-02 3.874684546000000118e+00
2.429549608999999943e+00 0.000000000000000000e+00 0.000000000000000000e+00 -1.267494904999999950e+00 2.075672057999999875e+00 0.000000000000000000e+00 -1.328359599999999995e-02 4.822211600000000237e-02 3.874684546000000118e+00
2.429549608999999943e+00 0.000000000000000000e+00 0.000000000000000000e+00 -1.267494904999999950e+00 2.075672057999999875e+00 0.000000000000000000e+00 -1.328359599999999995e-02 4.822211600000000237e-02 3.874684546000000118e+00
2.429549608999999943e+00 0.000000000000000000e+00 0.000000000000000000e+00 -1.267494904999999950e+00 2.075672057999999875e+00 0.000000000000000000e+00 -1.328359599999999995e-02 4.822211600000000237e-02 3.874684546000000118e+00
2.449788276000000042e+00 0.000000000000000000e+00 0.000000000000000000e+00 -1.175139871999999919e+00 2.094485895000000042e+00 0.000000000000000000e+00 -9.969439700000000404e-02 2.692445200000000149e-02 3.778258042000000039e+00
2.449788276000000042e+00 0.000000000000000000e+00 0.000000000000000000e+00 -1.175139871999999919e+00 2.094485895000000042e+00 0.000000000000000000e+00 -9.969439700000000404e-02 2.692445200000000149e-02 3.778258042000000039e+00
2.449788276000000042e+00 0.000000000000000000e+00 0.000000000000000000e+00 -1.175139871999999919e+00 2.094485895000000042e+00 0.000000000000000000e+00 -9.969439700000000404e-02 2.692445200000000149e-02 3.778258042000000039e+00
2.449788276000000042e+00 0.000000000000000000e+00 0.000000000000000000e+00 -1.175139871999999919e+00 2.094485895000000042e+00 0.000000000000000000e+00 -9.969439700000000404e-02 2.692445200000000149e-02 3.778258042000000039e+00
2.449788276000000042e+00 0.000000000000000000e+00 0.000000000000000000e+00 -1.175139871999999919e+00 2.094485895000000042e+00 0.000000000000000000e+00 -9.969439700000000404e-02 2.692445200000000149e-02 3.778258042000000039e+00
2.512454962000000069e+00 0.000000000000000000e+00 0.000000000000000000e+00 -1.252978581000000036e+00 2.132257339999999779e+00 0.000000000000000000e+00 3.863042700000000190e-02 9.845723300000000511e-02 3.942087021999999941e+00
2.512454962000000069e+00 0.000000000000000000e+00 0.000000000000000000e+00 -1.252978581000000036e+00 2.132257339999999779e+00 0.000000000000000000e+00 3.863042700000000190e-02 9.845723300000000511e-02 3.942087021999999941e+00
2.512454962000000069e+00 0.000000000000000000e+00 0.000000000000000000e+00 -1.252978581000000036e+00 2.132257339999999779e+00 0.000000000000000000e+00 3.863042700000000190e-02 9.845723300000000511e-02 3.942087021999999941e+00
2.512454962000000069e+00 0.000000000000000000e+00 0.000000000000000000e+00 -1.252978581000000036e+00 2.132257339999999779e+00 0.000000000000000000e+00 3.863042700000000190e-02 9.845723300000000511e-02 3.942087021999999941e+00
2.512454962000000069e+00 0.000000000000000000e+00 0.000000000000000000e+00 -1.252978581000000036e+00 2.132257339999999779e+00 0.000000000000000000e+00 3.863042700000000190e-02 9.845723300000000511e-02 3.942087021999999941e+00
2.404823080999999974e+00 0.000000000000000000e+00 0.000000000000000000e+00 -1.183790633999999953e+00 2.067242712000000093e+00 0.000000000000000000e+00 9.841041100000000319e-02 3.707805699999999760e-02 3.932797400000000110e+00
2.404823080999999974e+00 0.000000000000000000e+00 0.000000000000000000e+00 -1.183790633999999953e+00 2.067242712000000093e+00 0.000000000000000000e+00 9.841041100000000319e-02 3.707805699999999760e-02 3.932797400000000110e+00
2.404823080999999974e+00 0.000000000000000000e+00 0.000000000000000000e+00 -1.183790633999999953e+00 2.067242712000000093e+00 0.000000000000000000e+00 9.841041100000000319e-02 3.707805699999999760e-02 3.932797400000000110e+00
2.404823080999999974e+00 0.000000000000000000e+00 0.000000000000000000e+00 -1.183790633999999953e+00 2.067242712000000093e+00 0.000000000000000000e+00 9.841041100000000319e-02 3.707805699999999760e-02 3.932797400000000110e+00
2.404823080999999974e+00 0.000000000000000000e+00 0.000000000000000000e+00 -1.183790633999999953e+00 2.067242712000000093e+00 0.000000000000000000e+00 9.841041100000000319e-02 3.707805699999999760e-02 3.932797400000000110e+00
2.475320840999999827e+00 0.000000000000000000e+00 0.000000000000000000e+00 -1.271331433000000066e+00 2.142864218000000154e+00 0.000000000000000000e+00 -1.338955399999999969e-02 6.724700999999999596e-02 3.819463273000000214e+00
2.475320840999999827e+00 0.000000000000000000e+00 0.000000000000000000e+00 -1.271331433000000066e+00 2.142864218000000154e+00 0.000000000000000000e+00 -1.338955399999999969e-02 6.724700999999999596e-02 3.819463273000000214e+00
2.475320840999999827e+00 0.000000000000000000e+00 0.000000000000000000e+00 -1.271331433000000066e+00 2.142864218000000154e+00 0.000000000000000000e+00 -1.338955399999999969e-02 6.724700999999999596e-02 3.819463273000000214e+00
2.475320840999999827e+00 0.000000000000000000e+00 0.000000000000000000e+00 -1.271331433000000066e+00 2.142864218000000154e+00 0.000000000000000000e+00 -1.338955399999999969e-02 6.724700999999999596e-02 3.819463273000000214e+00
2.475320840999999827e+00 0.000000000000000000e+00 0.000000000000000000e+00 -1.271331433000000066e+00 2.142864218000000154e+00 0.000000000000000000e+00 -1.338955399999999969e-02 6.724700999999999596e-02 3.819463273000000214e+00
2.402728694999999970e+00 0.000000000000000000e+00 0.000000000000000000e+00 -1.202374327000000021e+00 2.126671642999999889e+00 0.000000000000000000e+00 -4.626144000000000089e-02 6.811505399999999433e-02 3.864156513999999820e+00
2.402728694999999970e+00 0.000000000000000000e+00 0.000000000000000000e+00 -1.202374327000000021e+00 2.126671642999999889e+00 0.000000000000000000e+00 -4.626144000000000089e-02 6.811505399999999433e-02 3.864156513999999820e+00
2.402728694999999970e+00 0.000000000000000000e+00 0.000000000000000000e+00 -1.202374327000000021e+00 2.126671642999999889e+00 0.000000000000000000e+00 -4.626144000000000089e-02 6.811505399999999433e-02 3.864156513999999820e+00
2.402728694999999970e+00 0.000000000000000000e+00 0.000000000000000000e+00 -1.202374327000000021e+00 2.126671642999999889e+00 0.000000000000000000e+00 -4.626144000000000089e-02 6.811505399999999433e-02 3.864156513999999820e+00
2.402728694999999970e+00 0.000000000000000000e+00 0.000000000000000000e+00 -1.202374327000000021e+00 2.126671642999999889e+00 0.000000000000000000e+00 -4.626144000000000089e-02 6.811505399999999433e-02 3.864156513999999820e+00
2.420731613000000060e+00 0.000000000000000000e+00 0.000000000000000000e+00 -1.202510339999999900e+00 2.144632677000000154e+00 0.000000000000000000e+00 -2.798719300000000049e-02 7.072364100000000375e-02 3.777508751000000053e+00
2.420731613000000060e+00 0.000000000000000000e+00 0.000000000000000000e+00 -1.202510339999999900e+00 2.144632677000000154e+00 0.000000000000000000e+00 -2.798719300000000049e-02 7.072364100000000375e-02 3.777508751000000053e+00
2.420731613000000060e+00 0.000000000000000000e+00 0.000000000000000000e+00 -1.202510339999999900e+00 2.144632677000000154e+00 0.000000000000000000e+00 -2.798719300000000049e-02 7.072364100000000375e-02 3.777508751000000053e+00
2.420731613000000060e+00 0.000000000000000000e+00 0.000000000000000000e+00 -1.202510339999999900e+00 2.144632677000000154e+00 0.000000000000000000e+00 -2.798719300000000049e-02 7.072364100000000375e-02 3.777508751000000053e+00
2.420731613000000060e+00 0.000000000000000000e+00 0.000000000000000000e+00 -1.202510339999999900e+00 2.144632677000000154e+00 0.000000000000000000e+00 -2.798719300000000049e-02 7.072364100000000375e-02 3.777508751000000053e+00
2.505037473999999875e+00 0.000000000000000000e+00 0.000000000000000000e+00 -1.302347509999999930e+00 2.179154749999999918e+00 0.000000000000000000e+00 -5.875948599999999966e-02 2.813124300000000022e-02 3.779924031999999823e+00
2.505037473999999875e+00 0.000000000000000000e+00 0.000000000000000000e+00 -1.302347509999999930e+00 2.179154749999999918e+00 0.000000000000000000e+00 -5.875948599999999966e-02 2.813124300000000022e-02 3.779924031999999823e+00
2.505037473999999875e+00 0.000000000000000000e+00 0.000000000000000000e+00 -1.302347509999999930e+00 2.179154749999999918e+00 0.000000000000000000e+00 -5.875948599999999966e-02 2.813124300000000022e-02 3.779924031999999823e+00
2.505037473999999875e+00 0.000000000000000000e+00 0.000000000000000000e+00 -1.302347509999999930e+00 2.179154749999999918e+00 0.000000000000000000e+00 -5.875948599999999966e-02 2.813124300000000022e-02 3.779924031999999823e+00
2.505037473999999875e+00 0.000000000000000000e+00 0.000000000000000000e+00 -1.302347509999999930e+00 2.179154749999999918e+00 0.000000000000000000e+00 -5.875948599999999966e-02 2.813124300000000022e-02 3.779924031999999823e+00
2.532394145000000041e+00 0.000000000000000000e+00 0.000000000000000000e+00 -1.266197071999999979e+00 2.193117662000000134e+00 0.000000000000000000e+00 0.000000000000000000e+00 0.000000000000000000e+00 4.000359215999999662e+00
2.532394145000000041e+00 0.000000000000000000e+00 0.000000000000000000e+00 -1.266197071999999979e+00 2.193117662000000134e+00 0.000000000000000000e+00 0.000000000000000000e+00 0.000000000000000000e+00 4.000359215999999662e+00
2.532394145000000041e+00 0.000000000000000000e+00 0.000000000000000000e+00 -1.266197071999999979e+00 2.193117662000000134e+00 0.000000000000000000e+00 0.000000000000000000e+00 0.000000000000000000e+00 4.000359215999999662e+00
2.532394145000000041e+00 0.000000000000000000e+00 0.000000000000000000e+00 -1.266197071999999979e+00 2.193117662000000134e+00 0.000000000000000000e+00 0.000000000000000000e+00 0.000000000000000000e+00 4.000359215999999662e+00
2.532394145000000041e+00 0.000000000000000000e+00 0.000000000000000000e+00 -1.266197071999999979e+00 2.193117662000000134e+00 0.000000000000000000e+00 0.000000000000000000e+00 0.000000000000000000e+00 4.000359215999999662e+00
2.485174143000000058e+00 0.000000000000000000e+00 0.000000000000000000e+00 -1.270838391999999928e+00 2.166269005999999830e+00 0.000000000000000000e+00 -6.691754799999999337e-02 -5.371265399999999857e-02 4.034278353999999567e+00
2.485174143000000058e+00 0.000000000000000000e+00 0.000000000000000000e+00 -1.270838391999999928e+00 2.166269005999999830e+00 0.000000000000000000e+00 -6.691754799999999337e-02 -5.371265399999999857e-02 4.034278353999999567e+00
2.485174143000000058e+00 0.000000000000000000e+00 0.000000000000000000e+00 -1.270838391999999928e+00 2.166269005999999830e+00 0.000000000000000000e+00 -6.691754799999999337e-02 -5.371265399999999857e-02 4.034278353999999567e+00
2.485174143000000058e+00 0.000000000000000000e+00 0.000000000000000000e+00 -1.270838391999999928e+00 2.166269005999999830e+00 0.000000000000000000e+00 -6.691754799999999337e-02 -5.371265399999999857e-02 4.034278353999999567e+00
2.485174143000000058e+00 0.000000000000000000e+00 0.000000000000000000e+00 -1.270838391999999928e+00 2.166269005999999830e+00 0.000000000000000000e+00 -6.691754799999999337e-02 -5.371265399999999857e-02 4.034278353999999567e+00
2.457292278000000163e+00 0.000000000000000000e+00 0.000000000000000000e+00 -1.189468621000000059e+00 2.244257537999999830e+00 0.000000000000000000e+00 9.586723699999999404e-02 -8.025995599999999341e-02 3.938041601000000114e+00
2.457292278000000163e+00 0.000000000000000000e+00 0.000000000000000000e+00 -1.189468621000000059e+00 2.244257537999999830e+00 0.000000000000000000e+00 9.586723699999999404e-02 -8.025995599999999341e-02 3.938041601000000114e+00
2.457292278000000163e+00 0.000000000000000000e+00 0.000000000000000000e+00 -1.189468621000000059e+00 2.244257537999999830e+00 0.000000000000000000e+00 9.586723699999999404e-02 -8.025995599999999341e-02 3.938041601000000114e+00
2.457292278000000163e+00 0.000000000000000000e+00 0.000000000000000000e+00 -1.189468621000000059e+00 2.244257537999999830e+00 0.000000000000000000e+00 9.586723699999999404e-02 -8.025995599999999341e-02 3.938041601000000114e+00
2.457292278000000163e+00 0.000000000000000000e+00 0.000000000000000000e+00 -1.189468621000000059e+00 2.244257537999999830e+00 0.000000000000000000e+00 9.586723699999999404e-02 -8.025995599999999341e-02 3.938041601000000114e+00
2.565685048000000190e+00 0.000000000000000000e+00 0.000000000000000000e+00 -1.315404218999999930e+00 2.178313478000000192e+00 0.000000000000000000e+00 4.575691900000000006e-02 -5.476627099999999831e-02 4.067212203000000414e+00
2.565685048000000190e+00 0.000000000000000000e+00 0.000000000000000000e+00 -1.315404218999999930e+00 2.178313478000000192e+00 0.000000000000000000e+00 4.575691900000000006e-02 -5.476627099999999831e-02 4.067212203000000414e+00
2.565685048000000190e+00 0.000000000000000000e+00 0.000000000000000000e+00 -1.315404218999999930e+00 2.178313478000000192e+00 0.000000000000000000e+00 4.575691900000000006e-02 -5.476627099999999831e-02 4.067212203000000414e+00
2.565685048000000190e+00 0.000000000000000000e+00 0.000000000000000000e+00 -1.315404218999999930e+00 2.178313478000000192e+00 0.000000000000000000e+00 4.575691900000000006e-02 -5.476627099999999831e-02 4.067212203000000414e+00
2.565685048000000190e+00 0.000000000000000000e+00 0.000000000000000000e+00 -1.315404218999999930e+00 2.178313478000000192e+00 0.000000000000000000e+00 4.575691900000000006e-02 -5.476627099999999831e-02 4.067212203000000414e+00
2.471236796999999985e+00 0.000000000000000000e+00 0.000000000000000000e+00 -1.262803002999999924e+00 2.183152118000000197e+00 0.000000000000000000e+00 -1.145576580000000066e-01 -8.539824899999999552e-02 3.919476626999999880e+00
2.471236796999999985e+00 0.000000000000000000e+00 0.000000000000000000e+00 -1.262803002999999924e+00 2.183152118000000197e+00 0.000000000000000000e+00 -1.145576580000000066e-01 -8.539824899999999552e-02 3.919476626999999880e+00
2.471236796999999985e+00 0.000000000000000000e+00 0.000000000000000000e+00 -1.262803002999999924e+00 2.183152118000000197e+00 0.000000000000000000e+00 -1.145576580000000066e-01 -8.539824899999999552e-02 3.919476626999999880e+00
2.471236796999999985e+00 0.000000000000000000e+00 0.000000000000000000e+00 -1.262803002999999924e+00 2.183152118000000197e+00 0.000000000000000000e+00 -1.145576580000000066e-01 -8.539824899999999552e-02 3.919476626999999880e+00
2.471236796999999985e+00 0.000000000000000000e+00 0.000000000000000000e+00 -1.262803002999999924e+00 2.183152118000000197e+00 0.000000000000000000e+00 -1.145576580000000066e-01 -8.539824899999999552e-02 3.919476626999999880e+00
2.545193090000000158e+00 0.000000000000000000e+00 0.000000000000000000e+00 -1.333198416000000108e+00 2.149278445999999843e+00 0.000000000000000000e+00 1.905652999999999861e-02 9.474822700000000431e-02 3.988065871999999956e+00
2.545193090000000158e+00 0.000000000000000000e+00 0.000000000000000000e+00 -1.333198416000000108e+00 2.149278445999999843e+00 0.000000000000000000e+00 1.905652999999999861e-02 9.474822700000000431e-02 3.988065871999999956e+00
2.545193090000000158e+00 0.000000000000000000e+00 0.000000000000000000e+00 -1.333198416000000108e+00 2.149278445999999843e+00 0.000000000000000000e+00 1.905652999999999861e-02 9.474822700000000431e-02 3.988065871999999956e+00
2.545193090000000158e+00 0.000000000000000000e+00 0.000000000000000000e+00 -1.333198416000000108e+00 2.149278445999999843e+00 0.000000000000000000e+00 1.905652999999999861e-02 9.474822700000000431e-02 3.988065871999999956e+00
2.545193090000000158e+00 0.000000000000000000e+00 0.000000000000000000e+00 -1.333198416000000108e+00 2.149278445999999843e+00 0.000000000000000000e+00 1.905652999999999861e-02 9.474822700000000431e-02 3.988065871999999956e+00
2.605336916999999808e+00 0.000000000000000000e+00 0.000000000000000000e+00 -1.299025979999999914e+00 2.190550845999999829e+00 0.000000000000000000e+00 -1.040624700000000041e-02 -8.012520700000000384e-02 3.880616444000000165e+00
2.605336916999999808e+00 0.000000000000000000e+00 0.000000000000000000e+00 -1.299025979999999914e+00 2.190550845999999829e+00 0.000000000000000000e+00 -1.040624700000000041e-02 -8.012520700000000384e-02 3.880616444000000165e+00