0.000000000000000000e+00 1.376910000000000078e+00 9.418299999999999450e-01 1.192439999999999944e+00 6.884500000000000064e-01 2.825499999999999901e+00
-1.600000000000000131e-04 1.379520000000000080e+00 9.430800000000000294e-01 1.192600000000000104e+00 6.858499999999999597e-01 2.824250000000000149e+00
-3.200000000000000262e-04 1.382120000000000015e+00 9.443300000000000027e-01 1.192749999999999977e+00 6.832399999999999585e-01 2.822999999999999954e+00
-4.699999999999999859e-04 1.384719999999999951e+00 9.455700000000000216e-01 1.192909999999999915e+00 6.806400000000000228e-01 2.821759999999999824e+00
-6.300000000000000261e-04 1.387320000000000109e+00 9.467999999999999750e-01 1.193070000000000075e+00 6.780399999999999761e-01 2.820520000000000138e+00
-3.003000000000000114e-02 1.368740000000000068e+00 9.233999999999999986e-01 1.122549999999999937e+00 7.017200000000000104e-01 2.784539999999999793e+00
-3.191999999999999699e-02 1.366759999999999975e+00 9.224799999999999667e-01 1.124440000000000106e+00 7.037099999999999467e-01 2.785449999999999982e+00
-3.380999999999999978e-02 1.364780000000000104e+00 9.215700000000000003e-01 1.126330000000000053e+00 7.056900000000000395e-01 2.786369999999999791e+00
-3.568999999999999950e-02 1.362789999999999946e+00 9.206699999999999884e-01 1.128209999999999935e+00 7.076700000000000212e-01 2.787269999999999914e+00
-3.756999999999999923e-02 1.360810000000000075e+00 9.197699999999999765e-01 1.130079999999999973e+00 7.096500000000000030e-01 2.788170000000000037e+00
-3.030000000000000054e-02 1.357879999999999976e+00 9.694300000000000139e-01 1.193440000000000056e+00 6.929499999999999549e-01 2.900409999999999933e+00
-2.973999999999999908e-02 1.360500000000000043e+00 9.705300000000000038e-01 1.192879999999999940e+00 6.903299999999999992e-01 2.899319999999999897e+00
-2.918000000000000108e-02 1.363120000000000109e+00 9.716200000000000392e-01 1.192320000000000046e+00 6.877100000000000435e-01 2.898229999999999862e+00
-2.861999999999999961e-02 1.365730000000000111e+00 9.727099999999999635e-01 1.191759999999999931e+00 6.851000000000000423e-01 2.897139999999999826e+00
-2.806000000000000161e-02 1.368339999999999890e+00 9.737900000000000444e-01 1.191189999999999971e+00 6.824900000000000411e-01 2.896049999999999791e+00
3.411000000000000143e-02 1.354929999999999968e+00 9.299300000000000344e-01 1.243859999999999966e+00 6.771700000000000497e-01 2.795529999999999848e+00
3.583999999999999686e-02 1.356680000000000108e+00 9.314400000000000457e-01 1.242129999999999956e+00 6.754200000000000204e-01 2.794020000000000170e+00
3.756000000000000311e-02 1.358430000000000026e+00 9.329499999999999460e-01 1.240410000000000013e+00 6.736799999999999455e-01 2.792499999999999982e+00
3.928000000000000241e-02 1.360160000000000036e+00 9.344700000000000228e-01 1.238690000000000069e+00 6.719399999999999817e-01 2.790989999999999860e+00
4.098999999999999866e-02 1.361879999999999979e+00 9.359800000000000342e-01 1.236979999999999968e+00 6.702200000000000379e-01 2.789480000000000182e+00
-4.655999999999999722e-02 1.394090000000000051e+00 9.434299999999999908e-01 1.112309999999999910e+00 6.289299999999999891e-01 2.822540000000000049e+00
-4.474000000000000199e-02 1.394989999999999952e+00 9.454900000000000526e-01 1.110489999999999977e+00 6.280299999999999772e-01 2.820479999999999876e+00
-4.291999999999999982e-02 1.395880000000000010e+00 9.475500000000000034e-01 1.108670000000000044e+00 6.271299999999999653e-01 2.818420000000000147e+00
-4.109999999999999765e-02 1.396779999999999911e+00 9.495999999999999996e-01 1.106849999999999890e+00 6.262299999999999534e-01 2.816380000000000106e+00
-3.928999999999999854e-02 1.397680000000000033e+00 9.516299999999999759e-01 1.105029999999999957e+00 6.253300000000000525e-01 2.814340000000000064e+00
-3.928999999999999854e-02 1.400649999999999951e+00 9.202599999999999669e-01 1.099040000000000017e+00 6.621299999999999963e-01 2.763349999999999973e+00
-3.998999999999999777e-02 1.400579999999999936e+00 9.174600000000000533e-01 1.099739999999999940e+00 6.621899999999999453e-01 2.766160000000000174e+00
-4.068000000000000088e-02 1.400530000000000053e+00 9.146699999999999831e-01 1.100430000000000019e+00 6.622400000000000508e-01 2.768949999999999800e+00
-4.136000000000000093e-02 1.400490000000000013e+00 9.118899999999999784e-01 1.101110000000000033e+00 6.622900000000000453e-01 2.771729999999999805e+00
-4.204000000000000098e-02 1.400449999999999973e+00 9.091200000000000392e-01 1.101790000000000047e+00 6.623200000000000198e-01 2.774490000000000123e+00
6.126000000000000195e-02 1.373599999999999932e+00 9.451699999999999546e-01 1.261339999999999906e+00 7.383199999999999763e-01 2.833919999999999995e+00
5.945999999999999897e-02 1.371439999999999992e+00 9.444700000000000317e-01 1.263139999999999930e+00 7.404800000000000271e-01 2.834620000000000140e+00
5.764999999999999986e-02 1.369289999999999896e+00 9.437799999999999523e-01 1.264939999999999953e+00 7.426300000000000123e-01 2.835319999999999840e+00
5.584000000000000075e-02 1.367140000000000022e+00 9.430800000000000294e-01 1.266750000000000043e+00 7.447799999999999976e-01 2.836009999999999920e+00
5.403000000000000164e-02 1.364999999999999991e+00 9.423899999999999499e-01 1.268559999999999910e+00 7.469200000000000284e-01 2.836699999999999999e+00
-6.340000000000000149e-03 1.407659999999999911e+00 9.654700000000000504e-01 1.120449999999999946e+00 7.662400000000000322e-01 2.897359999999999935e+00
-8.989999999999999727e-03 1.408819999999999961e+00 9.655099999999999794e-01 1.123110000000000053e+00 7.650900000000000478e-01 2.897320000000000118e+00
-1.165000000000000063e-02 1.409980000000000011e+00 9.655500000000000194e-01 1.125760000000000094e+00 7.639299999999999979e-01 2.897279999999999855e+00
-1.430999999999999980e-02 1.411140000000000061e+00 9.655799999999999939e-01 1.128419999999999979e+00 7.627599999999999936e-01 2.897250000000000103e+00
-1.695999999999999938e-02 1.412309999999999954e+00 9.656200000000000339e-01 1.131070000000000020e+00 7.616000000000000547e-01 2.897209999999999841e+00
1.254000000000000080e-02 1.390560000000000018e+00 9.414599999999999635e-01 1.201799999999999979e+00 7.616600000000000037e-01 2.826579999999999870e+00
1.459000000000000054e-02 1.392600000000000060e+00 9.415999999999999925e-01 1.199759999999999938e+00 7.596300000000000274e-01 2.826430000000000220e+00
1.662999999999999895e-02 1.394630000000000036e+00 9.417400000000000215e-01 1.197710000000000052e+00 7.575899999999999856e-01 2.826290000000000191e+00
1.867999999999999869e-02 1.396660000000000013e+00 9.418900000000000050e-01 1.195670000000000011e+00 7.555600000000000094e-01 2.826150000000000162e+00
2.071999999999999884e-02 1.398689999999999989e+00 9.420300000000000340e-01 1.193629999999999969e+00 7.535300000000000331e-01 2.826000000000000068e+00
1.382000000000000069e-02 1.365769999999999929e+00 9.416700000000000070e-01 1.162290000000000045e+00 6.802000000000000268e-01 2.826200000000000045e+00
1.601999999999999952e-02 1.364479999999999915e+00 9.403299999999999992e-01 1.160090000000000066e+00 6.814999999999999947e-01 2.827550000000000008e+00
1.822000000000000008e-02 1.363169999999999993e+00 9.389800000000000368e-01 1.157890000000000086e+00 6.827999999999999625e-01 2.828899999999999970e+00
2.041000000000000106e-02 1.361869999999999914e+00 9.376400000000000290e-01 1.155699999999999950e+00 6.841000000000000414e-01 2.830239999999999867e+00
2.259999999999999856e-02 1.360570000000000057e+00 9.363000000000000211e-01 1.153510000000000035e+00 6.854000000000000092e-01 2.831570000000000142e+00
0.000000000000000000e+00 1.419489999999999919e+00 9.709600000000000453e-01 1.229319999999999968e+00 7.097499999999999920e-01 2.912879999999999914e+00
-6.999999999999999929e-04 1.419429999999999970e+00 9.681499999999999551e-01 1.230019999999999891e+00 7.098200000000000065e-01 2.915690000000000115e+00
-1.399999999999999986e-03 1.419359999999999955e+00 9.653500000000000414e-01 1.230709999999999971e+00 7.098799999999999555e-01 2.918499999999999872e+00
-2.089999999999999844e-03 1.419289999999999941e+00 9.625500000000000167e-01 1.231409999999999894e+00 7.099499999999999700e-01 2.921300000000000008e+00
-2.789999999999999945e-03 1.419219999999999926e+00 9.597599999999999465e-01 1.232110000000000039e+00 7.100199999999999845e-01 2.924090000000000078e+00
-5.632000000000000201e-02 1.429589999999999916e+00 9.563500000000000334e-01 1.153829999999999911e+00 7.045099999999999696e-01 2.863669999999999938e+00
-5.825999999999999929e-02 1.431740000000000013e+00 9.563399999999999679e-01 1.155769999999999964e+00 7.023599999999999843e-01 2.863669999999999938e+00
-6.019000000000000045e-02 1.433890000000000109e+00 9.563399999999999679e-01 1.157699999999999951e+00 7.002099999999999991e-01 2.863680000000000003e+00
-6.210999999999999854e-02 1.436050000000000049e+00 9.563300000000000134e-01 1.159620000000000095e+00 6.980600000000000138e-01 2.863680000000000003e+00
-6.401999999999999358e-02 1.438199999999999923e+00 9.563300000000000134e-01 1.161529999999999951e+00 6.958999999999999631e-01 2.863690000000000069e+00
-4.052999999999999658e-02 1.397590000000000110e+00 9.689699999999999980e-01 1.181759999999999922e+00 7.233199999999999630e-01 2.910930000000000017e+00
-4.071999999999999925e-02 1.395270000000000010e+00 9.706799999999999873e-01 1.181950000000000056e+00 7.256500000000000172e-01 2.909219999999999917e+00
-4.089999999999999886e-02 1.392940000000000067e+00 9.724000000000000421e-01 1.182129999999999903e+00 7.279799999999999605e-01 2.907500000000000195e+00
-4.107999999999999846e-02 1.390609999999999902e+00 9.741199999999999859e-01 1.182309999999999972e+00 7.303100000000000147e-01 2.905780000000000030e+00
-4.125999999999999807e-02 1.388279999999999959e+00 9.758299999999999752e-01 1.182490000000000041e+00 7.326399999999999579e-01 2.904069999999999929e+00
9.190000000000000252e-03 1.402940000000000076e+00 9.447499999999999787e-01 1.166889999999999983e+00 7.176500000000000101e-01 2.833000000000000185e+00
6.409999999999999899e-03 1.402509999999999923e+00 9.454500000000000126e-01 1.169669999999999987e+00 7.180699999999999861e-01 2.832310000000000105e+00
3.629999999999999980e-03 1.402090000000000058e+00 9.461399999999999810e-01 1.172449999999999992e+00 7.185000000000000275e-01 2.831620000000000026e+00
8.499999999999999526e-04 1.401659999999999906e+00 9.468299999999999494e-01 1.175229999999999997e+00 7.189299999999999580e-01 2.830929999999999946e+00
-1.940000000000000101e-03 1.401229999999999976e+00 9.475099999999999634e-01 1.178020000000000067e+00 7.193500000000000449e-01 2.830239999999999867e+00
1.592000000000000012e-02 1.450609999999999955e+00 9.886800000000000033e-01 1.285169999999999924e+00 7.825999999999999623e-01 2.958429999999999893e+00
1.638999999999999832e-02 1.452949999999999964e+00 9.870600000000000485e-01 1.284699999999999953e+00 7.802599999999999536e-01 2.960059999999999913e+00
1.685999999999999999e-02 1.455289999999999973e+00 9.854300000000000281e-01 1.284219999999999917e+00 7.779199999999999449e-01 2.961679999999999868e+00
1.733000000000000165e-02 1.457619999999999916e+00 9.838099999999999623e-01 1.283749999999999947e+00 7.755900000000000016e-01 2.963299999999999823e+00
1.779999999999999985e-02 1.459940000000000015e+00 9.821900000000000075e-01 1.283290000000000042e+00 7.732700000000000129e-01 2.964920000000000222e+00
3.713999999999999940e-02 1.390290000000000026e+00 9.843899999999999872e-01 1.282599999999999962e+00 7.154700000000000504e-01 2.953469999999999818e+00
3.620999999999999913e-02 1.391909999999999981e+00 9.866000000000000325e-01 1.283519999999999994e+00 7.138499999999999845e-01 2.951259999999999994e+00
3.529000000000000192e-02 1.393529999999999935e+00 9.888099999999999667e-01 1.284450000000000092e+00 7.122300000000000297e-01 2.949050000000000171e+00
3.436000000000000165e-02 1.395149999999999890e+00 9.910200000000000120e-01 1.285379999999999967e+00 7.106099999999999639e-01 2.946839999999999904e+00
3.343999999999999750e-02 1.396760000000000002e+00 9.932199999999999918e-01 1.286299999999999999e+00 7.089999999999999636e-01 2.944640000000000146e+00
-2.522999999999999896e-02 1.444229999999999903e+00 9.549800000000000511e-01 1.220939999999999914e+00 7.640299999999999869e-01 2.859059999999999935e+00
-2.733000000000000013e-02 1.446050000000000058e+00 9.557799999999999629e-01 1.223030000000000062e+00 7.621999999999999886e-01 2.858260000000000023e+00
-2.940999999999999864e-02 1.447880000000000056e+00 9.565700000000000314e-01 1.225119999999999987e+00 7.603699999999999903e-01 2.857470000000000176e+00
-3.150000000000000022e-02 1.449710000000000054e+00 9.573599999999999888e-01 1.227200000000000069e+00 7.585499999999999465e-01 2.856679999999999886e+00
-3.357000000000000262e-02 1.451529999999999987e+00 9.581399999999999917e-01 1.229279999999999928e+00 7.567199999999999482e-01 2.855900000000000105e+00
-1.273999999999999959e-02 1.434949999999999948e+00 9.664300000000000113e-01 1.162730000000000041e+00 7.664299999999999446e-01 2.899270000000000014e+00
-1.293000000000000052e-02 1.432630000000000070e+00 9.681400000000000006e-01 1.162919999999999954e+00 7.687500000000000444e-01 2.897549999999999848e+00
-1.311999999999999972e-02 1.430309999999999970e+00 9.698600000000000554e-01 1.163110000000000088e+00 7.710599999999999676e-01 2.895840000000000192e+00
-1.331000000000000065e-02 1.428010000000000002e+00 9.715599999999999792e-01 1.163300000000000001e+00 7.733700000000000019e-01 2.894130000000000091e+00
-1.350999999999999944e-02 1.425710000000000033e+00 9.732699999999999685e-01 1.163489999999999913e+00 7.756699999999999706e-01 2.892430000000000057e+00
-2.909999999999999826e-03 1.438779999999999948e+00 9.415200000000000236e-01 1.190690000000000026e+00 7.675699999999999745e-01 2.830630000000000202e+00
-2.870000000000000155e-03 1.440360000000000085e+00 9.390899999999999803e-01 1.190649999999999986e+00 7.659899999999999487e-01 2.833060000000000134e+00
-2.840000000000000076e-03 1.441950000000000065e+00 9.366700000000000026e-01 1.190620000000000012e+00 7.643999999999999684e-01 2.835480000000000000e+00
-2.809999999999999998e-03 1.443540000000000045e+00 9.342500000000000249e-01 1.190590000000000037e+00 7.628099999999999881e-01 2.837899999999999867e+00
-2.779999999999999919e-03 1.445130000000000026e+00 9.318499999999999561e-01 1.190560000000000063e+00 7.612100000000000533e-01 2.840310000000000112e+00
-4.590000000000000330e-02 1.459740000000000038e+00 9.420100000000000140e-01 1.185419999999999918e+00 7.505500000000000504e-01 2.832230000000000025e+00
-4.648000000000000048e-02 1.456909999999999927e+00 9.420399999999999885e-01 1.185999999999999943e+00 7.533900000000000041e-01 2.832209999999999894e+00
-4.705999999999999767e-02 1.454080000000000039e+00 9.420600000000000085e-01 1.186579999999999968e+00 7.562200000000000033e-01 2.832180000000000142e+00
-4.762999999999999873e-02 1.451249999999999929e+00 9.420899999999999830e-01 1.187149999999999928e+00 7.590400000000000480e-01 2.832149999999999945e+00
-4.821000000000000285e-02 1.448430000000000106e+00 9.421199999999999575e-01 1.187729999999999952e+00 7.618599999999999817e-01 2.832120000000000193e+00
0.000000000000000000e+00 1.462080000000000046e+00 1.000089999999999923e+00 1.266199999999999992e+00 7.310400000000000231e-01 3.000269999999999992e+00
9.300000000000000541e-04 1.463000000000000078e+00 1.002669999999999950e+00 1.265269999999999895e+00 7.301100000000000367e-01 2.997689999999999966e+00
1.860000000000000108e-03 1.463929999999999954e+00 1.005249999999999977e+00 1.264340000000000019e+00 7.291900000000000048e-01 2.995109999999999939e+00
2.789999999999999945e-03 1.464849999999999985e+00 1.007819999999999938e+00 1.263409999999999922e+00 7.282699999999999729e-01 2.992539999999999978e+00
3.720000000000000216e-03 1.465770000000000017e+00 1.010389999999999899e+00 1.262480000000000047e+00 7.273500000000000520e-01 2.989970000000000017e+00
-3.348999999999999894e-02 1.429310000000000080e+00 1.007160000000000055e+00 1.184839999999999893e+00 6.818899999999999961e-01 3.022019999999999929e+00
-3.509999999999999926e-02 1.431270000000000042e+00 1.005759999999999987e+00 1.186450000000000005e+00 6.799300000000000344e-01 3.023420000000000218e+00
-3.670999999999999958e-02 1.433219999999999938e+00 1.004350000000000076e+00 1.188059999999999894e+00 6.779800000000000271e-01 3.024830000000000130e+00
-3.830999999999999683e-02 1.435170000000000057e+00 1.002950000000000008e+00 1.189670000000000005e+00 6.760300000000000198e-01 3.026229999999999976e+00
-3.991000000000000103e-02 1.437119999999999953e+00 1.001549999999999940e+00 1.191270000000000051e+00 6.740800000000000125e-01 3.027629999999999821e+00
5.138000000000000206e-02 1.475659999999999972e+00 9.852400000000000047e-01 1.317160000000000108e+00 6.943500000000000227e-01 2.954860000000000042e+00
5.158000000000000085e-02 1.477549999999999919e+00 9.874300000000000299e-01 1.316959999999999908e+00 6.924599999999999644e-01 2.952669999999999906e+00
5.177999999999999964e-02 1.479440000000000088e+00 9.896200000000000552e-01 1.316750000000000087e+00 6.905700000000000172e-01 2.950480000000000214e+00
5.199000000000000149e-02 1.481340000000000101e+00 9.918099999999999694e-01 1.316550000000000109e+00 6.886700000000000044e-01 2.948300000000000143e+00
5.219000000000000028e-02 1.483239999999999892e+00 9.939999999999999947e-01 1.316349999999999909e+00 6.867699999999999916e-01 2.946110000000000007e+00
-1.059000000000000045e-02 1.438779999999999948e+00 1.017090000000000050e+00 1.305549999999999988e+00 6.830600000000000005e-01 3.059120000000000061e+00
-9.549999999999999462e-03 1.439959999999999907e+00 1.019530000000000047e+00 1.304510000000000058e+00 6.818899999999999961e-01 3.056690000000000129e+00
-8.519999999999999796e-03 1.441130000000000022e+00 1.021959999999999980e+00 1.303469999999999906e+00 6.807100000000000373e-01 3.054260000000000197e+00
-7.479999999999999670e-03 1.442299999999999915e+00 1.024389999999999912e+00 1.302429999999999977e+00 6.795400000000000329e-01 3.051820000000000199e+00
-6.440000000000000412e-03 1.443470000000000031e+00 1.026820000000000066e+00 1.301399999999999890e+00 6.783799999999999830e-01 3.049389999999999823e+00
-4.050000000000000128e-02 1.433899999999999952e+00 9.754399999999999737e-01 1.137259999999999938e+00 6.589800000000000102e-01 2.944900000000000073e+00
-3.873999999999999666e-02 1.433289999999999953e+00 9.776599999999999735e-01 1.135499999999999954e+00 6.595900000000000096e-01 2.942680000000000184e+00
-3.697999999999999898e-02 1.432690000000000019e+00 9.798799999999999732e-01 1.133739999999999970e+00 6.601900000000000546e-01 2.940459999999999852e+00
-3.522000000000000131e-02 1.432090000000000085e+00 9.820999999999999730e-01 1.131979999999999986e+00 6.608000000000000540e-01 2.938239999999999963e+00
-3.345999999999999669e-02 1.431489999999999929e+00 9.843199999999999728e-01 1.130220000000000002e+00 6.613999999999999879e-01 2.936020000000000074e+00
-3.907000000000000056e-02 1.450320000000000054e+00 1.000569999999999959e+00 1.271139999999999937e+00 7.924900000000000277e-01 2.993869999999999809e+00
-3.975999999999999673e-02 1.450250000000000039e+00 9.977599999999999802e-01 1.271830000000000016e+00 7.925600000000000422e-01 2.996680000000000010e+00
-4.044999999999999984e-02 1.450180000000000025e+00 9.949599999999999556e-01 1.272520000000000095e+00 7.926299999999999457e-01 2.999490000000000212e+00
-4.114000000000000296e-02 1.450110000000000010e+00 9.921499999999999764e-01 1.273200000000000109e+00 7.926999999999999602e-01 3.002289999999999903e+00
-4.180999999999999994e-02 1.450039999999999996e+00 9.893600000000000172e-01 1.273879999999999901e+00 7.927699999999999747e-01 3.005090000000000039e+00
-4.780000000000000394e-03 1.445840000000000014e+00 9.687700000000000200e-01 1.303160000000000096e+00 6.677400000000000002e-01 2.910860000000000003e+00
-2.599999999999999881e-03 1.447750000000000092e+00 9.687700000000000200e-01 1.300990000000000091e+00 6.658300000000000329e-01 2.910849999999999937e+00
-4.299999999999999894e-04 1.449650000000000105e+00 9.687799999999999745e-01 1.298810000000000020e+00 6.639300000000000201e-01 2.910839999999999872e+00
1.750000000000000036e-03 1.451549999999999896e+00 9.687900000000000400e-01 1.296629999999999949e+00 6.620300000000000074e-01 2.910839999999999872e+00
3.930000000000000333e-03 1.453440000000000065e+00 9.687900000000000400e-01 1.294459999999999944e+00 6.601399999999999491e-01 2.910829999999999806e+00
3.622000000000000219e-02 1.483300000000000063e+00 1.019760000000000000e+00 1.296799999999999953e+00 7.003599999999999826e-01 3.056950000000000056e+00
3.810999999999999804e-02 1.482040000000000024e+00 1.017959999999999976e+00 1.294920000000000071e+00 7.016200000000000214e-01 3.058739999999999792e+00
3.998999999999999777e-02 1.480779999999999985e+00 1.016159999999999952e+00 1.293039999999999967e+00 7.028799999999999493e-01 3.060540000000000038e+00
4.186000000000000137e-02 1.479519999999999946e+00 1.014369999999999994e+00 1.291160000000000085e+00 7.041399999999999881e-01 3.062339999999999840e+00
4.374000000000000110e-02 1.478269999999999973e+00 1.012580000000000036e+00 1.289279999999999982e+00 7.053899999999999615e-01 3.064130000000000020e+00
1.600000000000000033e-02 1.445459999999999967e+00 9.740499999999999714e-01 1.269889999999999963e+00 7.782799999999999718e-01 2.925399999999999778e+00
1.825999999999999845e-02 1.444900000000000073e+00 9.757799999999999807e-01 1.267630000000000035e+00 7.788399999999999768e-01 2.923680000000000057e+00
2.051000000000000045e-02 1.444350000000000023e+00 9.775000000000000355e-01 1.265379999999999949e+00 7.793999999999999817e-01 2.921959999999999891e+00
2.275999999999999898e-02 1.443789999999999907e+00 9.792199999999999793e-01 1.263130000000000086e+00 7.799500000000000322e-01 2.920240000000000169e+00
2.500000000000000139e-02 1.443240000000000078e+00 9.809299999999999686e-01 1.260890000000000066e+00 7.805100000000000371e-01 2.918520000000000003e+00
-1.254000000000000080e-02 1.487239999999999895e+00 1.015260000000000051e+00 1.210309999999999997e+00 8.042399999999999549e-01 3.044579999999999842e+00
-1.401999999999999948e-02 1.485870000000000024e+00 1.017339999999999911e+00 1.211780000000000079e+00 8.056100000000000483e-01 3.042499999999999982e+00
-1.549000000000000030e-02 1.484499999999999931e+00 1.019419999999999993e+00 1.213249999999999940e+00 8.069800000000000306e-01 3.040420000000000122e+00
-1.696999999999999897e-02 1.483130000000000059e+00 1.021490000000000009e+00 1.214730000000000087e+00 8.083500000000000130e-01 3.038339999999999819e+00
-1.844000000000000153e-02 1.481770000000000032e+00 1.023560000000000025e+00 1.216199999999999948e+00 8.097100000000000408e-01 3.036270000000000024e+00
