-1.614815773000000121e+01
-1.614800238000000121e+01
-1.614753712999999991e+01
-1.614676619999999829e+01
-1.614569451999999927e+01
-1.594913801999999947e+01
-1.594864794999999980e+01
-1.594783999000000030e+01
-1.594671927999999994e+01
-1.594529183000000039e+01
-1.614162967000000037e+01
-1.614133651999999941e+01
-1.614080532999999917e+01
-1.614003814999999875e+01
-1.613903668000000025e+01
-1.604797081999999975e+01
-1.604713330999999954e+01
-1.604595501000000013e+01
-1.604443712000000133e+01
-1.604258175000000008e+01
-1.621338731999999894e+01
-1.621311915000000070e+01
-1.621243566000000058e+01
-1.621134242999999842e+01
-1.620984518999999935e+01
-1.594655726000000051e+01
-1.594550755000000031e+01
-1.594382088999999958e+01
-1.594150746000000041e+01
-1.593857962999999955e+01
-1.602046492999999927e+01
-1.602055740000000128e+01
-1.602040180999999919e+01
-1.601999819999999985e+01
-1.601934710000000095e+01
-1.611736153000000016e+01
-1.611774635000000089e+01
-1.611789242000000044e+01
-1.611779901999999964e+01
-1.611746620999999990e+01
-1.611688754000000046e+01
-1.611661112999999901e+01
-1.611608683000000042e+01
-1.611531394000000006e+01
-1.611429255999999910e+01
-1.615275171000000043e+01
-1.615231580000000022e+01
-1.615158565000000124e+01
-1.615056755000000166e+01
-1.614926137999999867e+01
-1.631544204000000065e+01
-1.631526236999999924e+01
-1.631472344999999891e+01
-1.631382698999999903e+01
-1.631257550999999850e+01
-1.627427803999999867e+01
-1.627405708999999945e+01
-1.627363009000000105e+01
-1.627299629999999908e+01
-1.627215548999999939e+01
-1.626605802999999995e+01
-1.626650937999999869e+01
-1.626666310999999965e+01
-1.626651933000000128e+01
-1.626607826000000045e+01
-1.624508355000000037e+01
-1.624547637999999949e+01
-1.624564366999999976e+01
-1.624558629999999937e+01
-1.624530504000000164e+01
-1.627706453000000053e+01
-1.627650587000000115e+01
-1.627571359999999956e+01
-1.627469062000000122e+01
-1.627343959999999967e+01
-1.624652568999999858e+01
-1.624644585000000063e+01
-1.624606564000000120e+01
-1.624539139999999904e+01
-1.624442305999999903e+01
-1.629762283000000167e+01
-1.629712574999999930e+01
-1.629641755999999830e+01
-1.629549894999999893e+01
-1.629437044999999884e+01
-1.628582649999999887e+01
-1.628521105000000091e+01
-1.628430472000000151e+01
-1.628310915000000136e+01
-1.628162621999999971e+01
-1.626545815000000061e+01
-1.626569543999999823e+01
-1.626550573000000099e+01
-1.626489321000000032e+01
-1.626386143999999945e+01
-1.626122279000000148e+01
-1.626092682000000167e+01
-1.626042804000000075e+01
-1.625972602999999950e+01
-1.625882033999999976e+01
-1.618260416000000035e+01
-1.618249804999999952e+01
-1.618217849999999913e+01
-1.618164674000000147e+01
-1.618090336999999934e+01
-1.622237262999999885e+01
-1.622229873999999938e+01
-1.622205261999999948e+01
-1.622163504999999972e+01
-1.622104672000000036e+01
-1.619445629000000153e+01
-1.619503084000000115e+01
-1.619536794000000057e+01
-1.619546981999999957e+01
-1.619533691999999903e+01
-1.609591256999999942e+01
-1.609594369999999941e+01
-1.609580821000000128e+01
-1.609550484000000026e+01
-1.609503670999999869e+01
-1.626771356000000068e+01
-1.626798334000000068e+01
-1.626798072000000062e+01
-1.626770786999999885e+01
-1.626716550000000083e+01
-1.620795294999999925e+01
-1.620771633000000023e+01
-1.620724601999999948e+01
-1.620654346999999973e+01
-1.620560937000000123e+01
-1.615168492000000100e+01
-1.615146020999999976e+01
-1.615107792999999958e+01
-1.615053685999999900e+01
-1.614983600000000052e+01
-1.603556486000000092e+01
-1.603525089000000037e+01
-1.603477888000000107e+01
-1.603415143000000143e+01
-1.603336759999999828e+01
-1.630392047000000133e+01
-1.630363340999999977e+01
-1.630311091000000090e+01
-1.630235556999999957e+01
-1.630136973000000111e+01
-1.612596203000000017e+01
-1.612588536999999889e+01
-1.612564171000000002e+01
-1.612523399000000168e+01
-1.612465955000000051e+01
