2.099999999999999884e-05 -1.399999999999999979e-05 -5.000000000000000409e-06 -2.099999999999999884e-05 1.200000000000000030e-05 6.999999999999999895e-06
2.516000000000000007e-03 -4.097399999999999654e-02 -4.394499999999999795e-02 -2.517999999999999839e-03 4.098500000000000060e-02 4.395600000000000201e-02
4.890000000000000249e-03 -7.883400000000000130e-02 -8.353599999999999914e-02 -4.890000000000000249e-03 7.883500000000000230e-02 8.353599999999999914e-02
7.353000000000000161e-03 -1.171549999999999953e-01 -1.249289999999999984e-01 -7.352000000000000028e-03 1.171539999999999943e-01 1.249279999999999974e-01
9.865999999999999770e-03 -1.554280000000000106e-01 -1.662349999999999939e-01 -9.865999999999999770e-03 1.554290000000000116e-01 1.662339999999999929e-01
5.896900000000000058e-02 -1.946200000000000013e-02 1.001780000000000032e-01 -5.922399999999999887e-02 1.961800000000000002e-02 -1.001299999999999968e-01
9.251700000000000201e-02 1.463700000000000070e-02 1.381759999999999933e-01 -9.273800000000000099e-02 -1.446799999999999996e-02 -1.381219999999999948e-01
1.236990000000000034e-01 4.648700000000000054e-02 1.736840000000000050e-01 -1.238950000000000051e-01 -4.633199999999999819e-02 -1.736139999999999906e-01
1.552939999999999876e-01 7.889899999999999691e-02 2.099930000000000130e-01 -1.554369999999999918e-01 -7.874699999999999755e-02 -2.099100000000000132e-01
1.867979999999999918e-01 1.114659999999999956e-01 2.459290000000000087e-01 -1.868859999999999966e-01 -1.113139999999999963e-01 -2.458359999999999990e-01
7.692100000000000326e-02 -3.351599999999999718e-02 -3.836500000000000327e-02 -7.694399999999999851e-02 3.347300000000000275e-02 3.840699999999999670e-02
7.009200000000000153e-02 -6.721499999999999697e-02 -6.620900000000000396e-02 -7.012000000000000177e-02 6.718799999999999772e-02 6.626999999999999558e-02
6.361999999999999600e-02 -9.912700000000000677e-02 -9.288200000000000622e-02 -6.364599999999999425e-02 9.909300000000000053e-02 9.294099999999999584e-02
5.703099999999999836e-02 -1.316259999999999930e-01 -1.199869999999999964e-01 -5.705799999999999761e-02 1.315919999999999868e-01 1.200480000000000019e-01
5.026599999999999818e-02 -1.643419999999999881e-01 -1.472400000000000098e-01 -5.029600000000000043e-02 1.643199999999999938e-01 1.473019999999999885e-01
-7.378200000000000036e-02 -1.799790000000000001e-01 7.250299999999999800e-02 7.384400000000000686e-02 1.799689999999999901e-01 -7.257800000000000362e-02
-1.003310000000000035e-01 -2.080190000000000095e-01 1.664799999999999960e-02 1.004079999999999973e-01 2.080440000000000067e-01 -1.670400000000000010e-02
-1.251029999999999920e-01 -2.343040000000000123e-01 -3.389600000000000252e-02 1.251520000000000132e-01 2.343159999999999965e-01 3.384199999999999708e-02
-1.508750000000000091e-01 -2.614630000000000010e-01 -8.696399999999999963e-02 1.509109999999999896e-01 2.614759999999999862e-01 8.691500000000000614e-02
-1.771500000000000019e-01 -2.889709999999999779e-01 -1.403040000000000120e-01 1.771739999999999982e-01 2.889860000000000206e-01 1.402579999999999938e-01
2.701900000000000135e-02 2.671600000000000016e-02 -5.021099999999999869e-02 -2.698100000000000151e-02 -2.672000000000000069e-02 5.028200000000000031e-02
-2.974000000000000081e-03 1.078699999999999971e-02 -1.221620000000000067e-01 2.998999999999999930e-03 -1.080500000000000037e-02 1.222199999999999953e-01
-3.139800000000000230e-02 -4.347000000000000169e-03 -1.871440000000000048e-01 3.139000000000000123e-02 4.303000000000000401e-03 1.871829999999999883e-01
-6.004899999999999821e-02 -1.961200000000000096e-02 -2.548329999999999762e-01 6.002500000000000197e-02 1.956799999999999859e-02 2.548610000000000042e-01
-8.890900000000000192e-02 -3.499599999999999933e-02 -3.223840000000000039e-01 8.888799999999999479e-02 3.496400000000000202e-02 3.224250000000000171e-01
7.854600000000000470e-02 1.919490000000000085e-01 1.060210000000000041e-01 -7.847500000000000309e-02 -1.920060000000000100e-01 -1.060750000000000026e-01
9.436700000000000643e-02 1.957659999999999956e-01 2.177939999999999876e-01 -9.430499999999999994e-02 -1.958110000000000128e-01 -2.178630000000000011e-01
1.098859999999999976e-01 1.995939999999999936e-01 3.286250000000000004e-01 -1.098350000000000021e-01 -1.996279999999999999e-01 -3.286990000000000189e-01
1.255920000000000092e-01 2.036729999999999929e-01 4.386909999999999976e-01 -1.255570000000000019e-01 -2.036949999999999872e-01 -4.387590000000000101e-01
1.413210000000000022e-01 2.077269999999999950e-01 5.499389999999999556e-01 -1.413020000000000109e-01 -2.077380000000000060e-01 -5.500030000000000197e-01
-1.443409999999999971e-01 5.959899999999999920e-02 3.179099999999999981e-02 1.443770000000000053e-01 -5.968099999999999794e-02 -3.176799999999999763e-02
-1.188759999999999956e-01 9.254199999999999926e-02 4.977199999999999680e-02 1.189120000000000038e-01 -9.262199999999999600e-02 -4.974699999999999955e-02
-9.503200000000000536e-02 1.235419999999999990e-01 6.615300000000000347e-02 9.507999999999999785e-02 -1.235919999999999935e-01 -6.614299999999999347e-02
-7.072599999999999720e-02 1.553420000000000079e-01 8.308699999999999419e-02 7.075900000000000245e-02 -1.553660000000000041e-01 -8.308500000000000607e-02
-4.593799999999999967e-02 1.876140000000000030e-01 9.978399999999999770e-02 4.595799999999999885e-02 -1.876079999999999970e-01 -9.978700000000000070e-02
-4.741999999999999688e-02 1.100949999999999984e-01 -3.490499999999999853e-02 4.748499999999999943e-02 -1.100649999999999962e-01 3.484099999999999697e-02
-7.634000000000000161e-03 9.396200000000000385e-02 -3.104499999999999968e-02 7.689999999999999787e-03 -9.392899999999999860e-02 3.098499999999999865e-02
2.946199999999999861e-02 7.883900000000000630e-02 -2.710299999999999862e-02 -2.941600000000000117e-02 -7.881100000000000605e-02 2.705099999999999866e-02
6.733100000000000196e-02 6.329300000000000204e-02 -2.324700000000000030e-02 -6.730200000000000071e-02 -6.326700000000000379e-02 2.320300000000000140e-02
1.057710000000000039e-01 4.728899999999999770e-02 -1.940300000000000011e-02 -1.057540000000000008e-01 -4.726700000000000346e-02 1.936399999999999927e-02
-6.747000000000000393e-03 -2.892899999999999985e-02 -3.259200000000000291e-02 6.810000000000000081e-03 2.858000000000000124e-02 3.249500000000000305e-02
-3.804899999999999949e-02 -6.006800000000000334e-02 -3.374800000000000022e-02 3.810399999999999898e-02 5.973599999999999743e-02 3.365499999999999742e-02
-6.782900000000000040e-02 -8.939800000000000524e-02 -3.449300000000000282e-02 6.790499999999999314e-02 8.909100000000000352e-02 3.441400000000000015e-02
-9.864299999999999458e-02 -1.193020000000000053e-01 -3.545600000000000140e-02 9.872899999999999732e-02 1.190380000000000049e-01 3.539400000000000185e-02
-1.302200000000000024e-01 -1.495350000000000013e-01 -3.625300000000000050e-02 1.303140000000000132e-01 1.493279999999999885e-01 3.619900000000000201e-02
-1.015139999999999931e-01 -7.165900000000000047e-02 1.001800000000000086e-02 1.015589999999999965e-01 7.176000000000000434e-02 -1.003399999999999952e-02
-1.324529999999999874e-01 -5.019699999999999857e-02 5.303999999999999687e-02 1.325199999999999989e-01 5.029900000000000343e-02 -5.306799999999999712e-02
-1.612959999999999949e-01 -2.998599999999999877e-02 9.200899999999999357e-02 1.613340000000000052e-01 3.009099999999999969e-02 -9.201499999999999957e-02
-1.904069999999999929e-01 -9.778000000000000233e-03 1.326019999999999976e-01 1.904399999999999982e-01 9.877000000000000363e-03 -1.325969999999999926e-01
-2.196180000000000077e-01 1.052100000000000084e-02 1.731489999999999974e-01 2.196539999999999881e-01 -1.043200000000000030e-02 -1.731429999999999914e-01
1.500000000000000038e-05 -1.000000000000000082e-05 -9.999999999999999547e-07 -1.599999999999999928e-05 9.000000000000000228e-06 9.999999999999999547e-07
8.352999999999999314e-03 8.059999999999999673e-04 6.201000000000000262e-02 -8.352999999999999314e-03 -8.050000000000000515e-04 -6.201099999999999668e-02
1.658700000000000105e-02 1.590000000000000050e-03 1.240620000000000056e-01 -1.658600000000000005e-02 -1.590000000000000050e-03 -1.240630000000000066e-01
2.478999999999999954e-02 2.350000000000000092e-03 1.854570000000000107e-01 -2.478899999999999854e-02 -2.350999999999999791e-03 -1.854609999999999870e-01
3.301099999999999868e-02 3.089999999999999865e-03 2.479399999999999937e-01 -3.301099999999999868e-02 -3.089999999999999865e-03 -2.479369999999999907e-01
1.296170000000000100e-01 8.921999999999999376e-02 2.851100000000000162e-02 -1.296499999999999875e-01 -8.922499999999999876e-02 -2.824300000000000074e-02
1.556710000000000038e-01 6.228399999999999909e-02 2.955999999999999947e-02 -1.556960000000000011e-01 -6.229799999999999921e-02 -2.930200000000000166e-02
1.800339999999999996e-01 3.737900000000000250e-02 3.054499999999999924e-02 -1.800529999999999908e-01 -3.739599999999999869e-02 -3.029700000000000101e-02
2.054600000000000037e-01 1.185300000000000069e-02 3.150399999999999728e-02 -2.054719999999999880e-01 -1.187900000000000067e-02 -3.125399999999999706e-02
2.314859999999999973e-01 -1.419300000000000075e-02 3.241999999999999743e-02 -2.314970000000000083e-01 1.415699999999999945e-02 -3.216499999999999915e-02
5.134999999999999981e-02 -8.560700000000000254e-02 6.432899999999999729e-02 -5.129399999999999932e-02 8.551599999999999480e-02 -6.422500000000000431e-02
5.444999999999999840e-02 -5.258100000000000274e-02 1.833299999999999860e-02 -5.439200000000000285e-02 5.249000000000000193e-02 -1.823599999999999874e-02
5.760400000000000242e-02 -2.148100000000000009e-02 -2.172200000000000172e-02 -5.754800000000000193e-02 2.139500000000000082e-02 2.181900000000000159e-02
6.071700000000000014e-02 1.028600000000000000e-02 -6.431900000000000117e-02 -6.066300000000000164e-02 -1.037500000000000054e-02 6.443100000000000216e-02
6.383500000000000285e-02 4.259799999999999698e-02 -1.070379999999999943e-01 -6.378799999999999748e-02 -4.268299999999999872e-02 1.071509999999999962e-01
-9.329400000000000193e-02 -3.606899999999999690e-02 -3.023999999999999952e-02 9.328000000000000180e-02 3.609300000000000008e-02 3.022199999999999886e-02
-5.625100000000000239e-02 -3.098599999999999965e-02 -4.762700000000000267e-02 5.625100000000000239e-02 3.100999999999999937e-02 4.761100000000000054e-02
-2.175699999999999856e-02 -2.662300000000000083e-02 -6.411000000000000032e-02 2.174299999999999844e-02 2.664300000000000002e-02 6.409099999999999520e-02
1.337799999999999927e-02 -2.230700000000000044e-02 -8.084399999999999920e-02 -1.340099999999999972e-02 2.232999999999999916e-02 8.082699999999999607e-02
4.899400000000000283e-02 -1.806800000000000073e-02 -9.749099999999999433e-02 -4.901599999999999707e-02 1.808600000000000138e-02 9.747500000000000608e-02
-2.338399999999999854e-02 -8.530699999999999394e-02 5.897000000000000332e-03 2.331400000000000139e-02 8.531999999999999307e-02 -5.983999999999999736e-03
-2.944000000000000089e-02 -1.134020000000000028e-01 3.998600000000000071e-02 2.936899999999999927e-02 1.134150000000000019e-01 -4.005600000000000133e-02
-3.509199999999999819e-02 -1.392089999999999994e-01 6.927099999999999924e-02 3.501900000000000152e-02 1.392170000000000074e-01 -6.933100000000000374e-02
-4.095700000000000035e-02 -1.654490000000000127e-01 1.006380000000000052e-01 4.087999999999999967e-02 1.654569999999999930e-01 -1.006859999999999977e-01
-4.695200000000000068e-02 -1.918690000000000118e-01 1.321839999999999959e-01 4.687199999999999700e-02 1.918910000000000060e-01 -1.322389999999999954e-01
-1.732799999999999965e-02 -3.867000000000000298e-02 3.659899999999999959e-02 1.730399999999999994e-02 3.866499999999999798e-02 -3.669399999999999745e-02
-2.026000000000000023e-03 -5.825099999999999723e-02 -9.764000000000000110e-03 1.995999999999999944e-03 5.825000000000000316e-02 9.674000000000000307e-03
1.297599999999999969e-02 -7.710000000000000187e-02 -5.729599999999999971e-02 -1.300600000000000020e-02 7.710400000000000587e-02 5.719899999999999984e-02
2.814300000000000135e-02 -9.610599999999999699e-02 -1.038860000000000061e-01 -2.817199999999999913e-02 9.611799999999999511e-02 1.037860000000000033e-01
4.333599999999999952e-02 -1.149260000000000004e-01 -1.513339999999999963e-01 -4.336700000000000277e-02 1.149570000000000036e-01 1.512350000000000083e-01
6.752299999999999969e-02 8.530000000000000256e-04 -7.083499999999999519e-02 -6.758100000000000218e-02 -8.159999999999999936e-04 7.063800000000000634e-02
9.349200000000000566e-02 -2.108200000000000005e-02 -8.990299999999999681e-02 -9.352900000000000102e-02 2.110000000000000070e-02 8.969100000000000683e-02
1.179810000000000025e-01 -4.153099999999999847e-02 -1.075829999999999981e-01 -1.179909999999999987e-01 4.152000000000000135e-02 1.073619999999999991e-01
1.433830000000000104e-01 -6.241399999999999726e-02 -1.258799999999999919e-01 -1.433679999999999954e-01 6.237999999999999795e-02 1.256619999999999959e-01
1.694559999999999955e-01 -8.364800000000000013e-02 -1.439000000000000001e-01 -1.694070000000000020e-01 8.358000000000000151e-02 1.436810000000000032e-01
-2.459799999999999834e-02 1.000729999999999953e-01 -5.004999999999999900e-03 2.472200000000000092e-02 -1.001699999999999952e-01 5.011999999999999962e-03
-2.306899999999999923e-02 1.317599999999999882e-01 -5.170099999999999696e-02 2.318999999999999881e-02 -1.318610000000000060e-01 5.171499999999999708e-02
-2.172200000000000172e-02 1.614259999999999862e-01 -9.244499999999999940e-02 2.184099999999999930e-02 -1.615399999999999892e-01 9.246799999999999464e-02
-2.038999999999999840e-02 1.920020000000000060e-01 -1.357250000000000123e-01 2.051100000000000145e-02 -1.920999999999999930e-01 1.357500000000000095e-01
-1.903499999999999984e-02 2.231819999999999915e-01 -1.791399999999999937e-01 1.915899999999999895e-02 -2.232490000000000030e-01 1.791510000000000047e-01
-1.734899999999999984e-02 1.244100000000000067e-01 -1.214900000000000008e-02 1.739100000000000021e-02 -1.244480000000000031e-01 1.205299999999999948e-02
-1.669199999999999851e-02 1.005569999999999936e-01 6.432200000000000417e-02 1.673799999999999941e-02 -1.005999999999999950e-01 -6.441700000000000204e-02
-1.599499999999999880e-02 7.859099999999999420e-02 1.343900000000000095e-01 1.604699999999999876e-02 -7.864500000000000657e-02 -1.344829999999999914e-01
-1.535100000000000006e-02 5.638699999999999962e-02 2.068649999999999933e-01 1.540599999999999956e-02 -5.643700000000000105e-02 -2.069580000000000031e-01
-1.472799999999999977e-02 3.379900000000000265e-02 2.796520000000000117e-01 1.478999999999999933e-02 -3.384600000000000108e-02 -2.797330000000000094e-01
1.082999999999999935e-02 3.277499999999999858e-02 8.042000000000000537e-03 -1.079800000000000031e-02 -3.278500000000000164e-02 -8.120000000000000481e-03
1.924000000000000016e-02 6.799900000000000388e-02 6.810000000000000081e-03 -1.920699999999999838e-02 -6.802500000000000213e-02 -6.886999999999999893e-03
2.718299999999999883e-02 1.009520000000000001e-01 5.575000000000000094e-03 -2.715000000000000052e-02 -1.009800000000000003e-01 -5.655000000000000304e-03
3.509400000000000019e-02 1.351789999999999936e-01 4.342999999999999639e-03 -3.506200000000000289e-02 -1.351999999999999869e-01 -4.432000000000000176e-03
4.292300000000000282e-02 1.702490000000000114e-01 3.112000000000000183e-03 -4.289699999999999763e-02 -1.702649999999999997e-01 -3.213000000000000144e-03
1.200000000000000030e-05 -6.000000000000000152e-06 0.000000000000000000e+00 -1.099999999999999971e-05 6.999999999999999895e-06 0.000000000000000000e+00
-8.888000000000000067e-03 -8.795000000000000734e-03 -3.540200000000000291e-02 8.888999999999999332e-03 8.795000000000000734e-03 3.539899999999999991e-02
-1.752300000000000038e-02 -1.727100000000000163e-02 -7.027899999999999425e-02 1.752400000000000138e-02 1.727100000000000163e-02 7.027899999999999425e-02
-2.631500000000000158e-02 -2.583500000000000033e-02 -1.050869999999999999e-01 2.631400000000000058e-02 2.583500000000000033e-02 1.050809999999999939e-01
-3.515000000000000069e-02 -3.438200000000000284e-02 -1.402220000000000133e-01 3.515000000000000069e-02 3.438200000000000284e-02 1.402190000000000103e-01
2.702099999999999988e-02 1.956099999999999853e-02 -7.860000000000000667e-03 -2.704600000000000060e-02 -1.954499999999999987e-02 7.868999999999999259e-03
4.402299999999999963e-02 1.062999999999999926e-03 1.201299999999999937e-02 -4.403599999999999876e-02 -1.054999999999999948e-03 -1.200900000000000058e-02
5.991099999999999898e-02 -1.566899999999999890e-02 2.820299999999999890e-02 -5.990800000000000292e-02 1.565899999999999931e-02 -2.820500000000000090e-02
7.642100000000000282e-02 -3.275800000000000239e-02 4.597299999999999998e-02 -7.639700000000000657e-02 3.273199999999999721e-02 -4.597199999999999898e-02
9.348399999999999765e-02 -5.022299999999999681e-02 6.401300000000000046e-02 -9.344500000000000028e-02 5.019200000000000050e-02 -6.400699999999999446e-02
-3.585100000000000092e-02 1.410140000000000005e-01 3.984999999999999654e-02 3.605599999999999777e-02 -1.409630000000000050e-01 -3.987899999999999778e-02
-3.521400000000000224e-02 1.205180000000000001e-01 -4.609999999999999840e-04 3.543299999999999922e-02 -1.204790000000000028e-01 4.330000000000000081e-04
-3.445899999999999658e-02 1.017330000000000040e-01 -3.513100000000000250e-02 3.467900000000000149e-02 -1.016640000000000044e-01 3.509899999999999826e-02
-3.385300000000000115e-02 8.282000000000000473e-02 -7.195000000000000007e-02 3.407199999999999812e-02 -8.273400000000000198e-02 7.192500000000000282e-02
-3.333599999999999758e-02 6.345199999999999452e-02 -1.092010000000000064e-01 3.355099999999999749e-02 -6.334199999999999553e-02 1.091870000000000063e-01
1.527300000000000012e-02 -3.762700000000000072e-02 3.492100000000000065e-02 -1.522699999999999922e-02 3.761400000000000160e-02 -3.471699999999999786e-02
6.903000000000000282e-03 -4.952000000000000152e-02 9.856000000000000177e-03 -6.873999999999999902e-03 4.950100000000000333e-02 -9.624000000000000610e-03
-1.033000000000000064e-03 -6.099999999999999867e-02 -1.557300000000000004e-02 1.044999999999999922e-03 6.099099999999999661e-02 1.581300000000000067e-02
-9.148999999999999147e-03 -7.263300000000000312e-02 -4.032899999999999680e-02 9.147999999999999882e-03 7.262799999999999812e-02 4.054499999999999771e-02
-1.731399999999999953e-02 -8.421800000000000119e-02 -6.585299999999999487e-02 1.729899999999999841e-02 8.421499999999999819e-02 6.600499999999999423e-02
-2.573999999999999899e-03 3.104799999999999921e-02 1.017359999999999931e-01 2.521999999999999936e-03 -3.104000000000000162e-02 -1.017760000000000054e-01
-2.508300000000000113e-02 3.471400000000000180e-02 5.565500000000000308e-02 2.500000000000000139e-02 -3.468399999999999955e-02 -5.572699999999999876e-02
-4.626999999999999863e-02 3.790799999999999725e-02 1.542600000000000048e-02 4.618200000000000083e-02 -3.784900000000000070e-02 -1.550099999999999915e-02
-6.741999999999999382e-02 4.117200000000000026e-02 -2.711300000000000168e-02 6.732399999999999496e-02 -4.109100000000000252e-02 2.702900000000000094e-02
-8.881300000000000305e-02 4.451399999999999801e-02 -7.009300000000000253e-02 8.872099999999999431e-02 -4.442600000000000021e-02 7.001100000000000378e-02
9.579899999999999527e-02 4.465000000000000219e-03 -2.337000000000000102e-03 -9.577399999999999802e-02 -4.464000000000000086e-03 2.112999999999999861e-03
1.015350000000000003e-01 2.583999999999999925e-03 3.789200000000000207e-02 -1.015139999999999931e-01 -2.569000000000000103e-03 -3.811300000000000104e-02
1.070180000000000020e-01 4.640000000000000027e-04 7.828799999999999648e-02 -1.069959999999999939e-01 -4.420000000000000101e-04 -7.849000000000000421e-02
1.127200000000000008e-01 -1.717999999999999909e-03 1.185480000000000006e-01 -1.126970000000000055e-01 1.737000000000000046e-03 -1.187269999999999992e-01
1.184100000000000014e-01 -3.950000000000000386e-03 1.592089999999999894e-01 -1.183870000000000061e-01 3.964999999999999775e-03 -1.593449999999999867e-01
5.366900000000000143e-02 -9.930700000000000638e-02 2.300000000000000002e-05 -5.365999999999999936e-02 9.931199999999999750e-02 -1.800000000000000046e-05
3.239500000000000018e-02 -1.185439999999999966e-01 -1.920999999999999965e-03 -3.239700000000000218e-02 1.185350000000000015e-01 1.930999999999999991e-03
1.266300000000000064e-02 -1.361660000000000093e-01 -3.863000000000000114e-03 -1.265900000000000011e-02 1.361580000000000013e-01 3.867000000000000211e-03
-7.853999999999999870e-03 -1.544030000000000125e-01 -5.790000000000000008e-03 7.848000000000000809e-03 1.543859999999999955e-01 5.780999999999999681e-03
-2.912000000000000005e-02 -1.729849999999999999e-01 -7.713000000000000238e-03 2.910199999999999940e-02 1.729539999999999966e-01 7.699000000000000114e-03
-3.874799999999999772e-02 3.722999999999999921e-02 -1.361999999999999929e-03 3.874500000000000166e-02 -3.721700000000000008e-02 1.278999999999999972e-03
-5.613499999999999740e-02 4.896299999999999958e-02 2.012500000000000053e-02 5.614000000000000240e-02 -4.896199999999999858e-02 -2.021699999999999886e-02
-7.184100000000000208e-02 5.956700000000000189e-02 3.662300000000000277e-02 7.185900000000000620e-02 -5.956899999999999695e-02 -3.671800000000000064e-02
-8.777000000000000079e-02 7.043499999999999761e-02 5.525100000000000150e-02 8.779099999999999404e-02 -7.043299999999999561e-02 -5.533899999999999930e-02
-1.039189999999999975e-01 8.147899999999999587e-02 7.435500000000000442e-02 1.039370000000000016e-01 -8.147000000000000075e-02 -7.442500000000000504e-02
-3.344899999999999957e-02 6.956000000000000377e-03 -3.383000000000000156e-03 3.341999999999999832e-02 -6.995999999999999615e-03 3.337999999999999821e-03
-5.861999999999999850e-02 1.481799999999999957e-02 -4.048500000000000015e-02 5.857799999999999813e-02 -1.487300000000000080e-02 4.042199999999999960e-02
-8.187999999999999445e-02 2.207800000000000040e-02 -7.215699999999999892e-02 8.184099999999999708e-02 -2.214800000000000102e-02 7.209899999999999642e-02
-1.054100000000000037e-01 2.922100000000000045e-02 -1.060689999999999966e-01 1.053820000000000034e-01 -2.929599999999999912e-02 1.060159999999999991e-01
-1.292520000000000058e-01 3.627999999999999975e-02 -1.401489999999999958e-01 1.292349999999999888e-01 -3.635399999999999743e-02 1.401050000000000073e-01
-3.959599999999999925e-02 2.395399999999999960e-02 -1.116999999999999937e-02 3.960299999999999931e-02 -2.392000000000000029e-02 1.116499999999999958e-02
-2.722099999999999867e-02 3.833500000000000102e-02 -3.650799999999999879e-02 2.724800000000000139e-02 -3.829199999999999965e-02 3.650199999999999972e-02
-1.607799999999999854e-02 5.165299999999999753e-02 -5.652000000000000079e-02 1.609899999999999873e-02 -5.160700000000000010e-02 5.651099999999999873e-02
-4.958999999999999866e-03 6.504300000000000359e-02 -7.879300000000000193e-02 4.967000000000000061e-03 -6.499099999999999322e-02 7.878999999999999893e-02
6.500999999999999834e-03 7.880500000000000005e-02 -1.015559999999999935e-01 -6.505999999999999631e-03 -7.874799999999999855e-02 1.015599999999999975e-01
