3.740910949989689538e+00 4.516998741257385044e-06 1.853127688720978724e-06 4.516998741257385044e-06 3.740917899218521914e+00 1.737307208175917276e-06 1.853127688720978724e-06 1.737307208175917276e-06 3.892792947895819200e+00
3.731431622759478373e+00 1.147780962201555999e-03 -1.609904679576350191e-05 1.147780962201555999e-03 3.769630722909486753e+00 3.508202355709902375e-04 -1.609904679576350191e-05 3.508202355709902375e-04 3.902626454155536440e+00
3.713906246745802608e+00 2.277957211360262784e-03 -8.165343878426811470e-05 2.277957211360262784e-03 3.790644380156218851e+00 1.386255331643837041e-03 -8.165343878426811470e-05 1.386255331643837041e-03 3.905976677375782469e+00
3.695248378073356932e+00 3.417514919443119699e-03 -1.768578737923083837e-04 3.417514919443119699e-03 3.810727767303212943e+00 3.024188567512092144e-03 -1.768578737923083837e-04 3.024188567512092144e-03 3.909391412603692384e+00
3.677895690396173478e+00 4.548154450524006555e-03 -3.094723240164034238e-04 4.548154450524006555e-03 3.832435305048890406e+00 5.377776552668279975e-03 -3.094723240164034238e-04 5.377776552668279975e-03 3.915303816494557054e+00
5.290139922081043444e+00 9.987468629719493951e-02 5.583064289999568608e-01 9.987468629719493951e-02 5.770879402530932900e+00 -2.326176723053425544e-01 5.583064289999568608e-01 -2.326176723053425544e-01 6.007427405604315318e+00
5.310490187421089026e+00 1.152138133557149280e-01 5.609583876873674990e-01 1.152138133557149280e-01 5.761744382641321494e+00 -2.280595277237647267e-01 5.609583876873674990e-01 -2.280595277237647267e-01 6.014122079418502409e+00
5.331875659875092488e+00 1.307227433689530649e-01 5.638713501285504970e-01 1.307227433689530649e-01 5.753125907130704597e+00 -2.229688953472204749e-01 5.638713501285504970e-01 -2.229688953472204749e-01 6.022882261794154424e+00
5.348541881201510861e+00 1.461108155995815838e-01 5.670277005212434052e-01 1.461108155995815838e-01 5.739593626220682587e+00 -2.174385368686351516e-01 5.670277005212434052e-01 -2.174385368686351516e-01 6.027977019390215574e+00
5.365822648743561629e+00 1.615036820042434762e-01 5.704675761364238484e-01 1.615036820042434762e-01 5.726369287372993000e+00 -2.114166083129964124e-01 5.704675761364238484e-01 -2.114166083129964124e-01 6.034442799267412560e+00
3.558731076710181629e+00 7.885443912161650415e-01 -1.616172374205586959e-01 7.885443912161650415e-01 4.576631735183892324e+00 -1.425106846629186075e-01 -1.616172374205586959e-01 -1.425106846629186075e-01 1.904294192164556199e+00
3.551166370801645211e+00 7.829411482222594643e-01 -1.613493234363980455e-01 7.829411482222594643e-01 4.609732461088833944e+00 -1.417763802072055379e-01 -1.613493234363980455e-01 -1.417763802072055379e-01 1.918798081034345238e+00
3.532546700188297084e+00 7.772264305286503694e-01 -1.608577574811941302e-01 7.772264305286503694e-01 4.631809486726800706e+00 -1.403284971590645080e-01 -1.608577574811941302e-01 -1.403284971590645080e-01 1.922679906422855023e+00
3.513363567122247400e+00 7.713145243956504027e-01 -1.602054197164393123e-01 7.713145243956504027e-01 4.652605958461454527e+00 -1.383396339505990613e-01 -1.602054197164393123e-01 -1.383396339505990613e-01 1.926609740873211907e+00
3.495242488180470897e+00 7.653066001389566830e-01 -1.593597576562957863e-01 7.653066001389566830e-01 4.673943878737523150e+00 -1.356492529628038068e-01 -1.593597576562957863e-01 -1.356492529628038068e-01 1.932208065865659963e+00
3.120912594187145839e+00 -6.797917692744593898e-01 -1.552870495891953972e-01 -6.797917692744593898e-01 5.399430406298663776e+00 -9.753406401612939314e-02 -1.552870495891953972e-01 -9.753406401612939314e-02 5.092136069905286888e+00
3.108056125177182327e+00 -6.907850249627345285e-01 -1.521856552572150578e-01 -6.907850249627345285e-01 5.414860820070332537e+00 -9.281764103894198092e-02 -1.521856552572150578e-01 -9.281764103894198092e-02 5.095746974123285256e+00
3.101248186399664597e+00 -7.018250152424834187e-01 -1.485051633467778243e-01 -7.018250152424834187e-01 5.435935721249382624e+00 -8.752954774111139369e-02 -1.485051633467778243e-01 -8.752954774111139369e-02 5.106969446414240110e+00
3.089293272222775943e+00 -7.129029416698344779e-01 -1.443115050541682320e-01 -7.129029416698344779e-01 5.451336083193282001e+00 -8.166281392684322793e-02 -1.443115050541682320e-01 -8.166281392684322793e-02 5.114244159778971621e+00
3.079151980138481459e+00 -7.239096806876790247e-01 -1.395858265710899493e-01 -7.239096806876790247e-01 5.467947888019343949e+00 -7.520498465611150096e-02 -1.395858265710899493e-01 -7.520498465611150096e-02 5.124326833659289981e+00
2.696515279796820597e+00 4.233514870824614529e-01 5.811015311337968114e-01 4.233514870824614529e-01 1.443383714324012024e+00 6.388079564219912854e-01 5.811015311337968114e-01 6.388079564219912854e-01 3.208570779153026464e+00
2.692831112426041784e+00 4.072940896340682682e-01 5.753696076375856006e-01 4.072940896340682682e-01 1.458763947221262125e+00 6.352267448482343815e-01 5.753696076375856006e-01 6.352267448482343815e-01 3.214357588492249729e+00
2.687276999928868371e+00 3.911165173006496687e-01 5.701698017914866856e-01 3.911165173006496687e-01 1.472465797346157457e+00 6.318370956285181972e-01 5.701698017914866856e-01 6.318370956285181972e-01 3.220403401613527006e+00
2.678284092064967759e+00 3.747270545231863315e-01 5.653838519424754239e-01 3.747270545231863315e-01 1.482937992277370443e+00 6.285954827348331220e-01 5.653838519424754239e-01 6.285954827348331220e-01 3.224976384825493092e+00
2.671896288723618174e+00 3.582442021087032247e-01 5.611230842775749572e-01 3.582442021087032247e-01 1.496151011626162708e+00 6.255425623471879693e-01 5.611230842775749572e-01 6.255425623471879693e-01 3.233920624850383341e+00
6.443678057833004402e+00 4.605350187308541177e-01 5.035924494684583808e-01 4.605350187308541177e-01 2.913324579219441546e+00 4.174865066187983254e-01 5.035924494684583808e-01 4.174865066187983254e-01 6.309908496384995402e+00
6.456298590347911315e+00 4.708060014367393409e-01 5.098079412177105585e-01 4.708060014367393409e-01 2.918546152243024938e+00 4.281739552695939532e-01 5.098079412177105585e-01 4.281739552695939532e-01 6.321900660927719962e+00
6.459759581530648553e+00 4.810353262587340750e-01 5.164839275696435639e-01 4.810353262587340750e-01 2.914711820621192828e+00 4.389052067901714760e-01 5.164839275696435639e-01 4.389052067901714760e-01 6.327898944631972000e+00
6.468181699292159692e+00 4.911848350267705721e-01 5.234845970491350808e-01 4.911848350267705721e-01 2.916486965787300711e+00 4.496004451265727120e-01 5.234845970491350808e-01 4.496004451265727120e-01 6.341614097315447118e+00
6.476827121374362228e+00 5.011709861850793812e-01 5.308653806073776460e-01 5.011709861850793812e-01 2.919043450287842401e+00 4.603042634065394045e-01 5.308653806073776460e-01 4.603042634065394045e-01 6.358472783269735196e+00
5.154178066647096657e+00 -7.872250693660270970e-01 -6.395030744578152904e-01 -7.872250693660270970e-01 5.190776186381365065e+00 -5.510292426592112713e-01 -6.395030744578152904e-01 -5.510292426592112713e-01 4.326858906632154778e+00
5.175351965425486256e+00 -7.751146100278039075e-01 -6.479727472834104773e-01 -7.751146100278039075e-01 5.179212354934113804e+00 -5.508182515454076444e-01 -6.479727472834104773e-01 -5.508182515454076444e-01 4.330291761515443483e+00
5.195339577431366429e+00 -7.634075493819232339e-01 -6.560382282169874291e-01 -7.634075493819232339e-01 5.166730338204826189e+00 -5.500938336127829675e-01 -6.560382282169874291e-01 -5.500938336127829675e-01 4.333516004883955830e+00
5.211746346157274168e+00 -7.521767484843329132e-01 -6.635171946473162885e-01 -7.521767484843329132e-01 5.151155749253233829e+00 -5.488853372493476268e-01 -6.635171946473162885e-01 -5.488853372493476268e-01 4.334455039986045755e+00
5.228186542583810770e+00 -7.412854370480508326e-01 -6.703795049867107281e-01 -7.412854370480508326e-01 5.136135153618176297e+00 -5.471412044761646554e-01 -6.703795049867107281e-01 -5.471412044761646554e-01 4.336586594143812867e+00
5.205116821929975934e+00 -2.213081580850134178e-01 4.601485840637453695e-01 -2.213081580850134178e-01 3.374991018777742102e+00 -6.348057685616126378e-01 4.601485840637453695e-01 -6.348057685616126378e-01 2.072423394600690916e+00
5.202506161654881112e+00 -2.053806111850861038e-01 4.540676956870984271e-01 -2.053806111850861038e-01 3.383851448598101275e+00 -6.339544815106872289e-01 4.540676956870984271e-01 -6.339544815106872289e-01 2.073057282136213875e+00
5.199740382626844237e+00 -1.890104510013854433e-01 4.477457317748626542e-01 -1.890104510013854433e-01 3.392461938954131284e+00 -6.328737819883041293e-01 4.477457317748626542e-01 -6.328737819883041293e-01 2.074029981684743174e+00
5.193631153004358403e+00 -1.725213275635480437e-01 4.412071847617133336e-01 -1.725213275635480437e-01 3.397914538066038936e+00 -6.315537563899519258e-01 4.412071847617133336e-01 -6.315537563899519258e-01 2.072666336226540729e+00
5.188060990206010636e+00 -1.558247182148193022e-01 4.344408581060846264e-01 -1.558247182148193022e-01 3.404053041979492988e+00 -6.299869403545865776e-01 4.344408581060846264e-01 -6.299869403545865776e-01 2.072782033822721193e+00
3.901150335047358197e+00 -2.806180346652667468e-01 8.527779764811624710e-03 -2.806180346652667468e-01 4.284385559659705578e+00 -7.692446782098442126e-01 8.527779764811624710e-03 -7.692446782098442126e-01 3.903733420762170336e+00
3.891742120327444265e+00 -2.956815769644053904e-01 1.281766651540855451e-02 -2.956815769644053904e-01 4.304333054615378629e+00 -7.730318051281509506e-01 1.281766651540855451e-02 -7.730318051281509506e-01 3.910658271678514986e+00
3.880213460389617897e+00 -3.108597129973886264e-01 1.721961072002661103e-02 -3.108597129973886264e-01 4.322638884812552540e+00 -7.765962005637736532e-01 1.721961072002661103e-02 -7.765962005637736532e-01 3.916789151724650253e+00
3.866296085999819443e+00 -3.258751812653268298e-01 2.164242159046547362e-02 -3.258751812653268298e-01 4.338140857664821048e+00 -7.798666181107607454e-01 2.164242159046547362e-02 -7.798666181107607454e-01 3.920889393915715448e+00
3.852601212521811203e+00 -3.407310944752760529e-01 2.610765750522509379e-02 -3.407310944752760529e-01 4.353769183366479112e+00 -7.828480150433125839e-01 2.610765750522509379e-02 -7.828480150433125839e-01 3.925680887644138028e+00
2.514857876619975841e+00 -8.618419910217240965e-01 6.132084122046798091e-01 -8.618419910217240965e-01 3.972028091453144949e+00 2.102230767841314213e-02 6.132084122046798091e-01 2.102230767841314213e-02 3.735158514618157621e+00
2.536604083299998535e+00 -8.762600944321390362e-01 6.119312391842306464e-01 -8.762600944321390362e-01 3.977120761860754250e+00 1.583643088885176853e-02 6.119312391842306464e-01 1.583643088885176853e-02 3.750522949324376576e+00
2.549385637012751893e+00 -8.908991098318983504e-01 6.100330801058576613e-01 -8.908991098318983504e-01 3.973006349150796535e+00 1.105425351020429374e-02 6.100330801058576613e-01 1.105425351020429374e-02 3.758335795948051228e+00
2.558989753589198557e+00 -9.054555609836548724e-01 6.075008369585463974e-01 -9.054555609836548724e-01 3.965635911238445388e+00 6.673202718878564789e-03 6.075008369585463974e-01 6.673202718878564789e-03 3.764263230664786519e+00
2.568993827287697318e+00 -9.199756417655404750e-01 6.042297256541799833e-01 -9.199756417655404750e-01 3.958323946589551667e+00 2.725438809776470437e-03 6.042297256541799833e-01 2.725438809776470437e-03 3.771471346797778512e+00
1.112681073410779799e-02 7.994857165246250944e-06 -3.807074840593453032e-07 7.994857165246250944e-06 1.113632842120928189e-02 0.000000000000000000e+00 -3.807074840593453032e-07 0.000000000000000000e+00 7.358060446909652115e-03
9.703599256199279058e-03 3.675096246119546710e-03 1.568514834324502463e-04 3.675096246119546710e-03 8.977336279108735079e-03 1.738564177204343368e-05 1.568514834324502463e-04 1.738564177204343368e-05 6.860729570233461451e-03
1.306296209553894049e-02 7.384836873288492393e-03 6.583701424332944613e-04 7.384836873288492393e-03 1.156970044056350282e-02 6.535478476352094273e-05 6.583701424332944613e-04 6.535478476352094273e-05 1.383529067820066759e-02
1.522157353015543037e-02 1.110346067508549001e-02 1.368389600203973348e-03 1.110346067508549001e-02 1.296626239458786682e-02 1.407348666072712933e-04 1.368389600203973348e-03 1.407348666072712933e-04 2.166276345295549063e-02
1.707105048771572972e-02 1.487462210968267841e-02 2.402137321919782433e-03 1.487462210968267841e-02 1.404112652458208536e-02 2.515207444685407735e-04 2.402137321919782433e-03 2.515207444685407735e-04 3.175861832023058745e-02
1.466219690637601714e+00 7.546084261133328974e-01 3.124129645874942351e-01 7.546084261133328974e-01 9.032313048487319862e-02 1.046082069605608622e-01 3.124129645874942351e-01 1.046082069605608622e-01 1.650430699017606750e+00
1.457949174978140583e+00 7.658284849686647355e-01 3.110626308998847844e-01 7.658284849686647355e-01 1.108085901108357418e-01 1.065349236962966073e-01 3.110626308998847844e-01 1.065349236962966073e-01 1.657089023568623753e+00
1.446658891847532935e+00 7.771585783398337055e-01 3.096441747198863115e-01 7.771585783398337055e-01 1.283311540378822557e-01 1.084670803406804912e-01 3.096441747198863115e-01 1.084670803406804912e-01 1.661309898142418362e+00
1.432657308792985029e+00 7.883492122347506292e-01 3.081495598188140894e-01 7.883492122347506292e-01 1.427425847553513705e-01 1.103641248474264841e-01 3.081495598188140894e-01 1.103641248474264841e-01 1.663220171517922452e+00
1.419505711464706721e+00 7.993607000471418811e-01 3.065698845279711815e-01 7.993607000471418811e-01 1.577545072070009324e-01 1.122368133995433614e-01 3.065698845279711815e-01 1.122368133995433614e-01 1.666273938418119549e+00
1.464290299588732802e+00 7.031562092088903260e-01 7.793875516809506410e-02 7.031562092088903260e-01 2.295923826061997630e+00 -3.058093218325885765e-01 7.793875516809506410e-02 -3.058093218325885765e-01 8.970490193061937401e-01
1.499337872168038377e+00 7.039766210093350018e-01 7.651282165080665332e-02 7.039766210093350018e-01 2.302403579201498740e+00 -3.023620555992945214e-01 7.651282165080665332e-02 -3.023620555992945214e-01 9.151777175224415917e-01
1.513190721161216556e+00 7.046817824527973340e-01 7.499676113477755923e-02 7.046817824527973340e-01 2.287688852670972661e+00 -2.996036084308007497e-01 7.499676113477755923e-02 -2.996036084308007497e-01 9.137709314189588206e-01
1.527987159585053378e+00 7.052686445880343991e-01 7.340703795671953136e-02 7.052686445880343991e-01 2.273590136249564964e+00 -2.974236082921135615e-01 7.340703795671953136e-02 -2.974236082921135615e-01 9.144899960800888516e-01
1.543190328104695475e+00 7.057264751066710806e-01 7.172487057697618518e-02 7.057264751066710806e-01 2.259795827120250955e+00 -2.958901077749749309e-01 7.172487057697618518e-02 -2.958901077749749309e-01 9.169729400142723197e-01
1.180723867925440818e+00 -6.371714065159266305e-01 6.386562038298979616e-01 -6.371714065159266305e-01 1.905122125365956043e+00 -1.885229156772839088e-01 6.386562038298979616e-01 -1.885229156772839088e-01 2.732522554814238891e+00
1.189406259846556457e+00 -6.192492943037050113e-01 6.390293694167521465e-01 -6.192492943037050113e-01 1.904977771752104809e+00 -1.832182531196682729e-01 6.390293694167521465e-01 -1.832182531196682729e-01 2.734319533455734419e+00
1.196458411835218616e+00 -6.012019465589301115e-01 6.389332950082040607e-01 -6.012019465589301115e-01 1.903200758195509268e+00 -1.778163061483591378e-01 6.389332950082040607e-01 -1.778163061483591378e-01 2.735379497963140949e+00
1.200359710425151327e+00 -5.832465592052088477e-01 6.384399759104075756e-01 -5.832465592052088477e-01 1.898582047554844499e+00 -1.724443673046569536e-01 6.384399759104075756e-01 -1.724443673046569536e-01 2.734226242059020873e+00
1.204689350836570139e+00 -5.653863992564336360e-01 6.374541847184163057e-01 -5.653863992564336360e-01 1.894489810152961251e+00 -1.670968705648926689e-01 6.374541847184163057e-01 -1.670968705648926689e-01 2.734143114705528621e+00
-1.704958349773450621e+00 -4.742424161996119936e-02 -1.919642582741930004e-01 -4.742424161996119936e-02 -7.493933876467911981e-01 -5.232103037822272151e-01 -1.919642582741930004e-01 -5.232103037822272151e-01 -1.460640885902908082e+00
-1.707332145362336018e+00 -5.015392860148303045e-02 -1.904394613741860198e-01 -5.015392860148303045e-02 -7.277144611817801811e-01 -5.277467327337003189e-01 -1.904394613741860198e-01 -5.277467327337003189e-01 -1.448923095894538493e+00
-1.713533750596467398e+00 -5.286911630404559498e-02 -1.889797794178688095e-01 -5.286911630404559498e-02 -7.096499413380598087e-01 -5.327280259259689066e-01 -1.889797794178688095e-01 -5.327280259259689066e-01 -1.439959114395413575e+00
-1.724925834074761299e+00 -5.556743211836465829e-02 -1.875555547891883945e-01 -5.556743211836465829e-02 -6.968851715772044209e-01 -5.380645514527395701e-01 -1.875555547891883945e-01 -5.380645514527395701e-01 -1.435112928120720222e+00
-1.734081865114282639e+00 -5.821882299350646106e-02 -1.861790459694465938e-01 -5.821882299350646106e-02 -6.819191476470788382e-01 -5.438422504947525438e-01 -1.861790459694465938e-01 -5.438422504947525438e-01 -1.427035379812513938e+00
2.097995440741841300e+00 -2.619245715970995869e-01 -5.889598342258456354e-01 -2.619245715970995869e-01 2.554714178217374787e+00 -2.237055804976898210e-01 -5.889598342258456354e-01 -2.237055804976898210e-01 6.740826749996857437e-02
2.088091382756633418e+00 -2.543745898627097768e-01 -5.860734641278414481e-01 -2.543745898627097768e-01 2.558968746072062039e+00 -2.247712664599724741e-01 -5.860734641278414481e-01 -2.247712664599724741e-01 6.498585457917703534e-02
2.080485755448122198e+00 -2.467131949503096611e-01 -5.834046731058419866e-01 -2.467131949503096611e-01 2.565649753829878588e+00 -2.250710935994810480e-01 -5.834046731058419866e-01 -2.250710935994810480e-01 6.670391168017063277e-02
2.075291924470603622e+00 -2.389606438013556489e-01 -5.809568779933459437e-01 -2.389606438013556489e-01 2.574750123764291132e+00 -2.247021976113921515e-01 -5.809568779933459437e-01 -2.247021976113921515e-01 7.256280489225280794e-02
2.067911930202772641e+00 -2.311500064829242196e-01 -5.787646132146436750e-01 -2.311500064829242196e-01 2.581693617552666797e+00 -2.235462096209302751e-01 -5.787646132146436750e-01 -2.235462096209302751e-01 7.817495391382363323e-02
-2.565625698586909698e-01 3.892028318188072156e-01 6.932773914543526039e-02 3.892028318188072156e-01 -2.327226123122099199e-01 -3.943194959686420198e-01 6.932773914543526039e-02 -3.943194959686420198e-01 1.106070948290990064e+00
-2.717546265251996052e-01 4.009296585435880300e-01 6.560847158318013073e-02 4.009296585435880300e-01 -2.277383410885533144e-01 -3.952725480074247844e-01 6.560847158318013073e-02 -3.952725480074247844e-01 1.102651998971020841e+00
-2.755244740019450189e-01 4.126571175172999983e-01 6.160178365683408042e-02 4.126571175172999983e-01 -2.111038717105687135e-01 -3.959214883103348015e-01 6.160178365683408042e-02 -3.959214883103348015e-01 1.111511070993990158e+00
-2.836606325970622566e-01 4.242066616417924929e-01 5.740086885884543300e-02 4.242066616417924929e-01 -1.989784752596045758e-01 -3.962825024500090665e-01 5.740086885884543300e-02 -3.962825024500090665e-01 1.116453107989047400e+00
-2.921293541299528895e-01 4.356080066168284692e-01 5.298587457277675189e-02 4.356080066168284692e-01 -1.872296462720204613e-01 -3.963491414873499541e-01 5.298587457277675189e-02 -3.963491414873499541e-01 1.121578750073704223e+00
1.893152163638354146e+00 5.940137966711681906e-03 2.908767252496884392e-01 5.940137966711681906e-03 6.634940622995211257e-01 -4.041609485255946432e-01 2.908767252496884392e-01 -4.041609485255946432e-01 8.879563479000659454e-01
1.902617810460122350e+00 5.868782367485001102e-03 2.924936258746522744e-01 5.868782367485001102e-03 6.424278929298988805e-01 -4.038876035876243775e-01 2.924936258746522744e-01 -4.038876035876243775e-01 8.851597999593892041e-01
1.927893220747857628e+00 5.776352834807951288e-03 2.939856850108136244e-01 5.776352834807951288e-03 6.373427897601383618e-01 -4.041371633258523666e-01 2.939856850108136244e-01 -4.041371633258523666e-01 8.992920290269560413e-01
1.943486206149852569e+00 5.700683857389673807e-03 2.953514237856497138e-01 5.700683857389673807e-03 6.228350503111487191e-01 -4.048923742275123416e-01 2.953514237856497138e-01 -4.048923742275123416e-01 9.051961810956120624e-01
1.961328310180322720e+00 5.641775435230167793e-03 2.965670569994182659e-01 5.641775435230167793e-03 6.109769574655679047e-01 -4.061501553081816596e-01 2.965670569994182659e-01 -4.061501553081816596e-01 9.147504370293733089e-01
1.599654678769950600e+00 -9.258299830831698274e-02 1.833613984362899574e-01 -9.258299830831698274e-02 3.569341706443963091e-01 -4.343755828369353367e-01 1.833613984362899574e-01 -4.343755828369353367e-01 2.487743552802044622e+00
1.570067126931727008e+00 -9.170083463160672022e-02 1.821234071186477177e-01 -9.170083463160672022e-02 3.537235208261488295e-01 -4.329532515030414808e-01 1.821234071186477177e-01 -4.329532515030414808e-01 2.471365444213375895e+00
1.571508920458571490e+00 -9.077423840117844478e-02 1.808276412407991418e-01 -9.077423840117844478e-02 3.821225324533477075e-01 -4.320391404529967949e-01 1.808276412407991418e-01 -4.320391404529967949e-01 2.487564965761067892e+00
1.559246147651042413e+00 -8.986184100334325409e-02 1.794991935672406169e-01 -8.986184100334325409e-02 3.968877271016795771e-01 -4.316649522526772031e-01 1.794991935672406169e-01 -4.316649522526772031e-01 2.492347891481541566e+00
1.547092436566275486e+00 -8.893524477291496477e-02 1.781299854518415549e-01 -8.893524477291496477e-02 4.119906336390142809e-01 -4.318644703313559985e-01 1.781299854518415549e-01 -4.318644703313559985e-01 2.499286714085308780e+00
-1.147146838511849065e+00 4.731636941823452180e-01 3.389251289405855183e-01 4.731636941823452180e-01 -1.332011917796315004e+00 -1.586637010704430306e-01 3.389251289405855183e-01 -1.586637010704430306e-01 1.323480622528619977e+00
-1.110589240827675850e+00 4.766507547120331645e-01 3.410278485915019808e-01 4.766507547120331645e-01 -1.325587463391567189e+00 -1.569089662603899427e-01 3.410278485915019808e-01 -1.569089662603899427e-01 1.345078349328319156e+00
-1.093201718481219942e+00 4.803244288739975110e-01 3.430634697590395077e-01 4.803244288739975110e-01 -1.338797750981026935e+00 -1.551079966028646173e-01 3.430634697590395077e-01 -1.551079966028646173e-01 1.348285296227778485e+00
-1.077814787000038743e+00 4.839004818259787233e-01 3.449995378984544447e-01 4.839004818259787233e-01 -1.353521424900976822e+00 -1.532862920973085685e-01 3.449995378984544447e-01 -1.532862920973085685e-01 1.350205008306945675e+00
-1.060939711612056469e+00 4.875212241709205863e-01 3.468466136155760049e-01 4.875212241709205863e-01 -1.366460098860021510e+00 -1.514335497136444220e-01 3.468466136155760049e-01 -1.514335497136444220e-01 1.354106894585123788e+00
-2.838161230398425161e+00 3.466744559020728325e-06 1.386697823608291245e-06 3.466744559020728325e-06 -2.838154158239524882e+00 2.773395647216582809e-07 1.386697823608291245e-06 2.773395647216582809e-07 -2.976046973809786333e+00
-2.839829843889573269e+00 -3.190653022340316988e-03 1.392244614902724497e-04 -3.190653022340316988e-03 -2.833467535605076026e+00 1.349256982370867337e-04 1.392244614902724497e-04 1.349256982370867337e-04 -2.973381185913681612e+00
-2.844966311298000594e+00 -6.418885555700419750e-03 5.862958398215854534e-04 -6.418885555700419750e-03 -2.832129094865729169e+00 5.862958398215854534e-04 5.862958398215854534e-04 5.862958398215854534e-04 -2.972430743225380478e+00
-2.848203141357867452e+00 -9.657240983172861795e-03 1.227920922805141946e-03 -9.657240983172861795e-03 -2.828893096824556697e+00 1.228059592587502601e-03 1.227920922805141946e-03 1.228059592587502601e-03 -2.967885841108504508e+00
-2.849059288594162798e+00 -1.288658287479185066e-02 2.150768324416459359e-03 -1.288658287479185066e-02 -2.823242303193353120e+00 2.167270028517398733e-03 2.150768324416459359e-03 2.167270028517398733e-03 -2.958944552211660639e+00
-1.633769137695075369e+00 2.951304577714145005e-01 3.274006825026688494e-01 2.951304577714145005e-01 -1.927180450772861153e+00 2.603368236038017258e-01 3.274006825026688494e-01 2.603368236038017258e-01 -3.057353790715680919e+00
-1.638075539573895290e+00 3.018569740024937276e-01 3.275220067812367186e-01 3.018569740024937276e-01 -1.918319982817519032e+00 2.633852486054040765e-01 3.275220067812367186e-01 2.633852486054040765e-01 -3.054705125823013567e+00
-1.638576561399131881e+00 3.085070356043972950e-01 3.278627992240519262e-01 3.085070356043972950e-01 -1.905596929394564931e+00 2.660565516595474467e-01 3.278627992240519262e-01 2.660565516595474467e-01 -3.047633750413524467e+00
-1.645868489435693416e+00 3.151100586312582941e-01 3.283851036322328887e-01 3.151100586312582941e-01 -1.899596732140655053e+00 2.683396170222736576e-01 3.283851036322328887e-01 2.683396170222736576e-01 -3.046303792316285453e+00
-1.650020897593336588e+00 3.215117782461938689e-01 3.291169804813813826e-01 3.215117782461938689e-01 -1.890560716765485427e+00 2.701640901677986317e-01 3.291169804813813826e-01 2.701640901677986317e-01 -3.041012020402928950e+00
-1.082674866954994375e+00 -3.562007801417638175e-01 -4.981148186540889089e-01 -3.562007801417638175e-01 -3.413283461436344979e+00 3.717772335612841705e-01 -4.981148186540889089e-01 3.717772335612841705e-01 -1.815602487722637326e+00
-1.088366203441949009e+00 -3.542517071585566946e-01 -4.943556114043995420e-01 -3.542517071585566946e-01 -3.400899345302276444e+00 3.691887713812074256e-01 -4.943556114043995420e-01 3.691887713812074256e-01 -1.813094948873179790e+00
-1.093452580423788234e+00 -3.521559691104750867e-01 -4.904211380466855230e-01 -3.521559691104750867e-01 -3.387398026335772361e+00 3.669309155719521764e-01 -4.904211380466855230e-01 3.669309155719521764e-01 -1.808349886709597509e+00
-1.106653791762166605e+00 -3.500938474543425216e-01 -4.863828334138384224e-01 -3.500938474543425216e-01 -3.382058442014574950e+00 3.650112569317004452e-01 -4.863828334138384224e-01 3.650112569317004452e-01 -1.810257210302803621e+00
-1.115404355466451891e+00 -3.479958050568127126e-01 -4.822401553059883494e-01 -3.479958050568127126e-01 -3.372174409481749624e+00 3.635343044854228989e-01 -4.822401553059883494e-01 3.635343044854228989e-01 -1.806094877449660574e+00
-3.647078740452222689e+00 3.000339705863457329e-01 -1.891623868867467473e-01 3.000339705863457329e-01 -2.840528992599031799e+00 2.368236357064328335e-01 -1.891623868867467473e-01 2.368236357064328335e-01 -4.023975102618957855e+00
-3.652680304522352372e+00 2.979184515688264590e-01 -1.905370273374706602e-01 2.979184515688264590e-01 -2.836884897235542713e+00 2.397313925479631069e-01 -1.905370273374706602e-01 2.397313925479631069e-01 -4.026238031217268976e+00
-3.662021163021140335e+00 2.957598021253581844e-01 -1.917519149605018125e-01 2.957598021253581844e-01 -2.837103670646113240e+00 2.428418907667339588e-01 -1.917519149605018125e-01 2.428418907667339588e-01 -4.030939531398515463e+00
-3.662272000498370872e+00 2.935062373695218607e-01 -1.923570178113984397e-01 2.935062373695218607e-01 -2.828257109528924840e+00 2.464366131426233286e-01 -1.923570178113984397e-01 2.464366131426233286e-01 -4.024598081896398227e+00
-3.665637734362806377e+00 2.912305398951063329e-01 -1.927649124646992063e-01 2.912305398951063329e-01 -2.822679238817787262e+00 2.502364887945728311e-01 -1.927649124646992063e-01 2.502364887945728311e-01 -4.019922403220161478e+00
-9.673844622979369534e-01 2.643519207983404673e-01 6.030680096715076433e-01 2.643519207983404673e-01 -1.864045623233584692e+00 4.408880264783600067e-01 6.030680096715076433e-01 4.408880264783600067e-01 -1.141387297635012787e+00
-9.550224620165217448e-01 2.533967210059029918e-01 6.010049926489717809e-01 2.533967210059029918e-01 -1.853585093507071679e+00 4.358323083499447415e-01 6.010049926489717809e-01 4.358323083499447415e-01 -1.132868229133085602e+00
-9.505807260510414913e-01 2.422547661058659096e-01 5.993747459429156210e-01 2.422547661058659096e-01 -1.850840387346195381e+00 4.304573247760996035e-01 5.993747459429156210e-01 4.304573247760996035e-01 -1.130218946253336298e+00
-9.514935163861356626e-01 2.311091156983993145e-01 5.980896332342960919e-01 2.311091156983993145e-01 -1.853464989515611672e+00 4.248775045047318288e-01 5.980896332342960919e-01 4.248775045047318288e-01 -1.131484525565542576e+00
-9.481910525682166746e-01 2.199275660759029971e-01 5.972685706728991795e-01 2.199275660759029971e-01 -1.851860083431929649e+00 4.190359631179083055e-01 5.972685706728991795e-01 4.190359631179083055e-01 -1.126901172476066249e+00
-2.734535054254519704e+00 6.297645579161120777e-01 -1.081789730118783571e-01 6.297645579161120777e-01 -1.659072637335625267e+00 -4.623328594117532275e-01 -1.081789730118783571e-01 -4.623328594117532275e-01 -2.557512304707279860e+00
-2.723741666645506765e+00 6.316093207471376036e-01 -1.052386269406377778e-01 6.316093207471376036e-01 -1.642866965034583515e+00 -4.640667839681660856e-01 -1.052386269406377778e-01 -4.640667839681660856e-01 -2.542595025224895000e+00
-2.725522704276877484e+00 6.333300373027672681e-01 -1.020025305838209023e-01 6.333300373027672681e-01 -1.639417498190889111e+00 -4.656898702499659981e-01 -1.020025305838209023e-01 -4.656898702499659981e-01 -2.537982981982374486e+00
-2.727371960551468799e+00 6.349525789247411067e-01 -9.857212683404022180e-02 6.349525789247411067e-01 -1.636281074582249806e+00 -4.671942206896744776e-01 -9.857212683404022180e-02 -4.671942206896744776e-01 -2.531509019124305926e+00
-2.727256356503377166e+00 6.364942385625379506e-01 -9.489989412146788983e-02 6.364942385625379506e-01 -1.631437414748677206e+00 -4.685636316574649518e-01 -9.489989412146788983e-02 -4.685636316574649518e-01 -2.520841992594949676e+00
-3.844635143013684253e+00 -1.069470799822811943e-02 5.377764966951022879e-02 -1.069470799822811943e-02 -2.730390275244511056e+00 3.972783782150192122e-01 5.377764966951022879e-02 3.972783782150192122e-01 -1.381787569021610595e+00