2.880500077999999853e+00 0.000000000000000000e+00 0.000000000000000000e+00 0.000000000000000000e+00 2.880500077999999853e+00 0.000000000000000000e+00 0.000000000000000000e+00 0.000000000000000000e+00 2.880500077999999853e+00
2.880500077999999853e+00 0.000000000000000000e+00 0.000000000000000000e+00 0.000000000000000000e+00 2.880500077999999853e+00 0.000000000000000000e+00 0.000000000000000000e+00 0.000000000000000000e+00 2.880500077999999853e+00
2.880500077999999853e+00 0.000000000000000000e+00 0.000000000000000000e+00 0.000000000000000000e+00 2.880500077999999853e+00 0.000000000000000000e+00 0.000000000000000000e+00 0.000000000000000000e+00 2.880500077999999853e+00
2.880500077999999853e+00 0.000000000000000000e+00 0.000000000000000000e+00 0.000000000000000000e+00 2.880500077999999853e+00 0.000000000000000000e+00 0.000000000000000000e+00 0.000000000000000000e+00 2.880500077999999853e+00
2.880500077999999853e+00 0.000000000000000000e+00 0.000000000000000000e+00 0.000000000000000000e+00 2.880500077999999853e+00 0.000000000000000000e+00 0.000000000000000000e+00 0.000000000000000000e+00 2.880500077999999853e+00
