1.958110000000000017e+00 2.729589999999999961e+00 6.791599999999999859e-01 5.176800000000000290e-01 1.289539999999999909e+00 2.119409999999999794e+00
1.959070000000000089e+00 2.729330000000000034e+00 6.783400000000000540e-01 5.167199999999999571e-01 1.289809999999999901e+00 2.120229999999999837e+00
1.960040000000000004e+00 2.729060000000000041e+00 6.775200000000000111e-01 5.157500000000000417e-01 1.290070000000000050e+00 2.121049999999999880e+00
1.961000000000000076e+00 2.728800000000000114e+00 6.767100000000000337e-01 5.147899999999999698e-01 1.290329999999999977e+00 2.121869999999999923e+00
1.961959999999999926e+00 2.728540000000000187e+00 6.758899999999999908e-01 5.138300000000000090e-01 1.290589999999999904e+00 2.122689999999999966e+00
