-1.644006432000000117e+01
-1.644003487000000163e+01
-1.643995362000000071e+01
-1.643982069999999851e+01
-1.643963648000000077e+01
