-1.410000000000000012e-03 1.572000000000000047e-03 4.199999999999999768e-05 1.270999999999999994e-03 -1.556000000000000091e-03 4.100000000000000047e-05
-1.597000000000000156e-02 5.551000000000000378e-03 1.240499999999999936e-02 1.583199999999999885e-02 -5.532999999999999724e-03 -1.231999999999999935e-02
-3.116400000000000073e-02 9.695999999999999758e-03 2.531200000000000117e-02 3.102600000000000149e-02 -9.674999999999999573e-03 -2.522399999999999989e-02
-4.646999999999999742e-02 1.387599999999999945e-02 3.831199999999999883e-02 4.633500000000000119e-02 -1.385400000000000000e-02 -3.821800000000000197e-02
-6.111099999999999866e-02 1.787499999999999853e-02 5.074300000000000338e-02 6.097799999999999748e-02 -1.785099999999999881e-02 -5.064099999999999852e-02
