-1.255084679592897601e+00 -1.342566459251795847e-06 -2.789554754223175570e-05 -1.342566459251795847e-06 -1.255034407937701380e+00 3.580177224671455309e-06 -2.789554754223175570e-05 3.580177224671455309e-06 -1.255111381748031496e+00
-1.255595302369566513e+00 0.000000000000000000e+00 -2.431537031756029785e-05 0.000000000000000000e+00 -1.255494609885122737e+00 2.237610765419659462e-06 -2.431537031756029785e-05 2.237610765419659462e-06 -1.255597987502484969e+00
-1.255398989318413649e+00 -2.535958867475614424e-06 -3.132655071587523078e-05 -2.535958867475614424e-06 -1.255170007150085754e+00 3.580177224671455309e-06 -3.132655071587523078e-05 3.580177224671455309e-06 -1.255354833799309455e+00
-1.255285766213683374e+00 3.729351275699432578e-06 -6.116136092147069309e-06 3.729351275699432578e-06 -1.254785436446535618e+00 -2.386784816447637155e-06 -6.116136092147069309e-06 -2.386784816447637155e-06 -1.255151360393707227e+00
-1.254941174155808747e+00 1.715501586821738893e-05 4.221625644091757694e-05 1.715501586821738893e-05 -1.254070892742111365e+00 -1.506657915382570800e-05 4.221625644091757694e-05 -1.506657915382570800e-05 -1.254686086528550959e+00
