3.342113624000000005e+00 0.000000000000000000e+00 0.000000000000000000e+00 0.000000000000000000e+00 3.342113624000000005e+00 0.000000000000000000e+00 0.000000000000000000e+00 0.000000000000000000e+00 3.342113624000000005e+00
3.342113624000000005e+00 0.000000000000000000e+00 0.000000000000000000e+00 0.000000000000000000e+00 3.342113624000000005e+00 0.000000000000000000e+00 0.000000000000000000e+00 0.000000000000000000e+00 3.342113624000000005e+00
3.342113624000000005e+00 0.000000000000000000e+00 0.000000000000000000e+00 0.000000000000000000e+00 3.342113624000000005e+00 0.000000000000000000e+00 0.000000000000000000e+00 0.000000000000000000e+00 3.342113624000000005e+00
3.342113624000000005e+00 0.000000000000000000e+00 0.000000000000000000e+00 0.000000000000000000e+00 3.342113624000000005e+00 0.000000000000000000e+00 0.000000000000000000e+00 0.000000000000000000e+00 3.342113624000000005e+00
3.342113624000000005e+00 0.000000000000000000e+00 0.000000000000000000e+00 0.000000000000000000e+00 3.342113624000000005e+00 0.000000000000000000e+00 0.000000000000000000e+00 0.000000000000000000e+00 3.342113624000000005e+00
3.354311172000000063e+00 0.000000000000000000e+00 0.000000000000000000e+00 -6.914945999999999940e-03 3.343757072999999913e+00 0.000000000000000000e+00 -1.407321000000000006e-03 -1.821269199999999908e-02 3.406643504999999905e+00
3.354311172000000063e+00 0.000000000000000000e+00 0.000000000000000000e+00 -6.914945999999999940e-03 3.343757072999999913e+00 0.000000000000000000e+00 -1.407321000000000006e-03 -1.821269199999999908e-02 3.406643504999999905e+00
3.354311172000000063e+00 0.000000000000000000e+00 0.000000000000000000e+00 -6.914945999999999940e-03 3.343757072999999913e+00 0.000000000000000000e+00 -1.407321000000000006e-03 -1.821269199999999908e-02 3.406643504999999905e+00
3.354311172000000063e+00 0.000000000000000000e+00 0.000000000000000000e+00 -6.914945999999999940e-03 3.343757072999999913e+00 0.000000000000000000e+00 -1.407321000000000006e-03 -1.821269199999999908e-02 3.406643504999999905e+00
3.354311172000000063e+00 0.000000000000000000e+00 0.000000000000000000e+00 -6.914945999999999940e-03 3.343757072999999913e+00 0.000000000000000000e+00 -1.407321000000000006e-03 -1.821269199999999908e-02 3.406643504999999905e+00
3.303366748999999825e+00 0.000000000000000000e+00 0.000000000000000000e+00 2.378727500000000009e-02 3.391498900999999844e+00 0.000000000000000000e+00 6.780790000000000428e-02 -2.277933399999999831e-02 3.366932634999999951e+00
3.303366748999999825e+00 0.000000000000000000e+00 0.000000000000000000e+00 2.378727500000000009e-02 3.391498900999999844e+00 0.000000000000000000e+00 6.780790000000000428e-02 -2.277933399999999831e-02 3.366932634999999951e+00
3.303366748999999825e+00 0.000000000000000000e+00 0.000000000000000000e+00 2.378727500000000009e-02 3.391498900999999844e+00 0.000000000000000000e+00 6.780790000000000428e-02 -2.277933399999999831e-02 3.366932634999999951e+00
3.303366748999999825e+00 0.000000000000000000e+00 0.000000000000000000e+00 2.378727500000000009e-02 3.391498900999999844e+00 0.000000000000000000e+00 6.780790000000000428e-02 -2.277933399999999831e-02 3.366932634999999951e+00
3.303366748999999825e+00 0.000000000000000000e+00 0.000000000000000000e+00 2.378727500000000009e-02 3.391498900999999844e+00 0.000000000000000000e+00 6.780790000000000428e-02 -2.277933399999999831e-02 3.366932634999999951e+00
3.409280659999999852e+00 0.000000000000000000e+00 0.000000000000000000e+00 -6.000244600000000095e-02 3.360104312999999898e+00 0.000000000000000000e+00 1.029968300000000045e-02 1.002583630000000031e-01 3.428834752999999846e+00
3.409280659999999852e+00 0.000000000000000000e+00 0.000000000000000000e+00 -6.000244600000000095e-02 3.360104312999999898e+00 0.000000000000000000e+00 1.029968300000000045e-02 1.002583630000000031e-01 3.428834752999999846e+00
3.409280659999999852e+00 0.000000000000000000e+00 0.000000000000000000e+00 -6.000244600000000095e-02 3.360104312999999898e+00 0.000000000000000000e+00 1.029968300000000045e-02 1.002583630000000031e-01 3.428834752999999846e+00
3.409280659999999852e+00 0.000000000000000000e+00 0.000000000000000000e+00 -6.000244600000000095e-02 3.360104312999999898e+00 0.000000000000000000e+00 1.029968300000000045e-02 1.002583630000000031e-01 3.428834752999999846e+00
3.409280659999999852e+00 0.000000000000000000e+00 0.000000000000000000e+00 -6.000244600000000095e-02 3.360104312999999898e+00 0.000000000000000000e+00 1.029968300000000045e-02 1.002583630000000031e-01 3.428834752999999846e+00
3.396640421999999937e+00 0.000000000000000000e+00 0.000000000000000000e+00 6.189433600000000119e-02 3.440442474000000139e+00 0.000000000000000000e+00 7.775757899999999334e-02 9.578536399999999784e-02 3.413831163999999863e+00
3.396640421999999937e+00 0.000000000000000000e+00 0.000000000000000000e+00 6.189433600000000119e-02 3.440442474000000139e+00 0.000000000000000000e+00 7.775757899999999334e-02 9.578536399999999784e-02 3.413831163999999863e+00
3.396640421999999937e+00 0.000000000000000000e+00 0.000000000000000000e+00 6.189433600000000119e-02 3.440442474000000139e+00 0.000000000000000000e+00 7.775757899999999334e-02 9.578536399999999784e-02 3.413831163999999863e+00
3.396640421999999937e+00 0.000000000000000000e+00 0.000000000000000000e+00 6.189433600000000119e-02 3.440442474000000139e+00 0.000000000000000000e+00 7.775757899999999334e-02 9.578536399999999784e-02 3.413831163999999863e+00
3.396640421999999937e+00 0.000000000000000000e+00 0.000000000000000000e+00 6.189433600000000119e-02 3.440442474000000139e+00 0.000000000000000000e+00 7.775757899999999334e-02 9.578536399999999784e-02 3.413831163999999863e+00
3.367167616000000141e+00 0.000000000000000000e+00 0.000000000000000000e+00 -4.992790800000000001e-02 3.343301938999999834e+00 0.000000000000000000e+00 -5.486172400000000060e-02 8.721325700000000236e-02 3.369631236000000030e+00
3.367167616000000141e+00 0.000000000000000000e+00 0.000000000000000000e+00 -4.992790800000000001e-02 3.343301938999999834e+00 0.000000000000000000e+00 -5.486172400000000060e-02 8.721325700000000236e-02 3.369631236000000030e+00
3.367167616000000141e+00 0.000000000000000000e+00 0.000000000000000000e+00 -4.992790800000000001e-02 3.343301938999999834e+00 0.000000000000000000e+00 -5.486172400000000060e-02 8.721325700000000236e-02 3.369631236000000030e+00
3.367167616000000141e+00 0.000000000000000000e+00 0.000000000000000000e+00 -4.992790800000000001e-02 3.343301938999999834e+00 0.000000000000000000e+00 -5.486172400000000060e-02 8.721325700000000236e-02 3.369631236000000030e+00
3.367167616000000141e+00 0.000000000000000000e+00 0.000000000000000000e+00 -4.992790800000000001e-02 3.343301938999999834e+00 0.000000000000000000e+00 -5.486172400000000060e-02 8.721325700000000236e-02 3.369631236000000030e+00
3.366720429999999986e+00 0.000000000000000000e+00 0.000000000000000000e+00 -6.405082700000000462e-02 3.281072538000000094e+00 0.000000000000000000e+00 -8.390214000000000005e-03 8.782214999999999466e-03 3.267106011000000088e+00
3.366720429999999986e+00 0.000000000000000000e+00 0.000000000000000000e+00 -6.405082700000000462e-02 3.281072538000000094e+00 0.000000000000000000e+00 -8.390214000000000005e-03 8.782214999999999466e-03 3.267106011000000088e+00
3.366720429999999986e+00 0.000000000000000000e+00 0.000000000000000000e+00 -6.405082700000000462e-02 3.281072538000000094e+00 0.000000000000000000e+00 -8.390214000000000005e-03 8.782214999999999466e-03 3.267106011000000088e+00
3.366720429999999986e+00 0.000000000000000000e+00 0.000000000000000000e+00 -6.405082700000000462e-02 3.281072538000000094e+00 0.000000000000000000e+00 -8.390214000000000005e-03 8.782214999999999466e-03 3.267106011000000088e+00
3.366720429999999986e+00 0.000000000000000000e+00 0.000000000000000000e+00 -6.405082700000000462e-02 3.281072538000000094e+00 0.000000000000000000e+00 -8.390214000000000005e-03 8.782214999999999466e-03 3.267106011000000088e+00
3.259098314000000052e+00 0.000000000000000000e+00 0.000000000000000000e+00 -5.939652900000000346e-02 3.432858765000000201e+00 0.000000000000000000e+00 -5.512448400000000137e-02 -2.996926499999999841e-02 3.291279209999999900e+00
3.259098314000000052e+00 0.000000000000000000e+00 0.000000000000000000e+00 -5.939652900000000346e-02 3.432858765000000201e+00 0.000000000000000000e+00 -5.512448400000000137e-02 -2.996926499999999841e-02 3.291279209999999900e+00
3.259098314000000052e+00 0.000000000000000000e+00 0.000000000000000000e+00 -5.939652900000000346e-02 3.432858765000000201e+00 0.000000000000000000e+00 -5.512448400000000137e-02 -2.996926499999999841e-02 3.291279209999999900e+00
3.259098314000000052e+00 0.000000000000000000e+00 0.000000000000000000e+00 -5.939652900000000346e-02 3.432858765000000201e+00 0.000000000000000000e+00 -5.512448400000000137e-02 -2.996926499999999841e-02 3.291279209999999900e+00
3.259098314000000052e+00 0.000000000000000000e+00 0.000000000000000000e+00 -5.939652900000000346e-02 3.432858765000000201e+00 0.000000000000000000e+00 -5.512448400000000137e-02 -2.996926499999999841e-02 3.291279209999999900e+00
3.295850643000000080e+00 0.000000000000000000e+00 0.000000000000000000e+00 3.992274700000000148e-02 3.309428206999999844e+00 0.000000000000000000e+00 6.460767700000000224e-02 9.510819500000000648e-02 3.364052051999999904e+00
3.295850643000000080e+00 0.000000000000000000e+00 0.000000000000000000e+00 3.992274700000000148e-02 3.309428206999999844e+00 0.000000000000000000e+00 6.460767700000000224e-02 9.510819500000000648e-02 3.364052051999999904e+00
3.295850643000000080e+00 0.000000000000000000e+00 0.000000000000000000e+00 3.992274700000000148e-02 3.309428206999999844e+00 0.000000000000000000e+00 6.460767700000000224e-02 9.510819500000000648e-02 3.364052051999999904e+00
3.295850643000000080e+00 0.000000000000000000e+00 0.000000000000000000e+00 3.992274700000000148e-02 3.309428206999999844e+00 0.000000000000000000e+00 6.460767700000000224e-02 9.510819500000000648e-02 3.364052051999999904e+00
3.295850643000000080e+00 0.000000000000000000e+00 0.000000000000000000e+00 3.992274700000000148e-02 3.309428206999999844e+00 0.000000000000000000e+00 6.460767700000000224e-02 9.510819500000000648e-02 3.364052051999999904e+00
3.301356021000000140e+00 0.000000000000000000e+00 0.000000000000000000e+00 5.389974399999999943e-02 3.305681256999999817e+00 0.000000000000000000e+00 -3.997510099999999900e-02 -7.216748000000000260e-03 3.298706675000000033e+00
3.301356021000000140e+00 0.000000000000000000e+00 0.000000000000000000e+00 5.389974399999999943e-02 3.305681256999999817e+00 0.000000000000000000e+00 -3.997510099999999900e-02 -7.216748000000000260e-03 3.298706675000000033e+00
3.301356021000000140e+00 0.000000000000000000e+00 0.000000000000000000e+00 5.389974399999999943e-02 3.305681256999999817e+00 0.000000000000000000e+00 -3.997510099999999900e-02 -7.216748000000000260e-03 3.298706675000000033e+00
3.301356021000000140e+00 0.000000000000000000e+00 0.000000000000000000e+00 5.389974399999999943e-02 3.305681256999999817e+00 0.000000000000000000e+00 -3.997510099999999900e-02 -7.216748000000000260e-03 3.298706675000000033e+00
3.301356021000000140e+00 0.000000000000000000e+00 0.000000000000000000e+00 5.389974399999999943e-02 3.305681256999999817e+00 0.000000000000000000e+00 -3.997510099999999900e-02 -7.216748000000000260e-03 3.298706675000000033e+00
3.445477963000000088e+00 0.000000000000000000e+00 0.000000000000000000e+00 0.000000000000000000e+00 3.445477963000000088e+00 0.000000000000000000e+00 0.000000000000000000e+00 0.000000000000000000e+00 3.445477963000000088e+00
3.445477963000000088e+00 0.000000000000000000e+00 0.000000000000000000e+00 0.000000000000000000e+00 3.445477963000000088e+00 0.000000000000000000e+00 0.000000000000000000e+00 0.000000000000000000e+00 3.445477963000000088e+00
3.445477963000000088e+00 0.000000000000000000e+00 0.000000000000000000e+00 0.000000000000000000e+00 3.445477963000000088e+00 0.000000000000000000e+00 0.000000000000000000e+00 0.000000000000000000e+00 3.445477963000000088e+00
3.445477963000000088e+00 0.000000000000000000e+00 0.000000000000000000e+00 0.000000000000000000e+00 3.445477963000000088e+00 0.000000000000000000e+00 0.000000000000000000e+00 0.000000000000000000e+00 3.445477963000000088e+00
3.445477963000000088e+00 0.000000000000000000e+00 0.000000000000000000e+00 0.000000000000000000e+00 3.445477963000000088e+00 0.000000000000000000e+00 0.000000000000000000e+00 0.000000000000000000e+00 3.445477963000000088e+00
3.488591797999999855e+00 0.000000000000000000e+00 0.000000000000000000e+00 8.652089999999999781e-02 3.433770648999999953e+00 0.000000000000000000e+00 -1.010774249999999985e-01 6.695380099999999335e-02 3.517040378999999994e+00
3.488591797999999855e+00 0.000000000000000000e+00 0.000000000000000000e+00 8.652089999999999781e-02 3.433770648999999953e+00 0.000000000000000000e+00 -1.010774249999999985e-01 6.695380099999999335e-02 3.517040378999999994e+00
3.488591797999999855e+00 0.000000000000000000e+00 0.000000000000000000e+00 8.652089999999999781e-02 3.433770648999999953e+00 0.000000000000000000e+00 -1.010774249999999985e-01 6.695380099999999335e-02 3.517040378999999994e+00
3.488591797999999855e+00 0.000000000000000000e+00 0.000000000000000000e+00 8.652089999999999781e-02 3.433770648999999953e+00 0.000000000000000000e+00 -1.010774249999999985e-01 6.695380099999999335e-02 3.517040378999999994e+00
3.488591797999999855e+00 0.000000000000000000e+00 0.000000000000000000e+00 8.652089999999999781e-02 3.433770648999999953e+00 0.000000000000000000e+00 -1.010774249999999985e-01 6.695380099999999335e-02 3.517040378999999994e+00
3.504217354000000118e+00 0.000000000000000000e+00 0.000000000000000000e+00 9.067186400000000479e-02 3.405204122999999861e+00 0.000000000000000000e+00 -6.732936100000000423e-02 5.833006999999999775e-02 3.491298331999999949e+00
3.504217354000000118e+00 0.000000000000000000e+00 0.000000000000000000e+00 9.067186400000000479e-02 3.405204122999999861e+00 0.000000000000000000e+00 -6.732936100000000423e-02 5.833006999999999775e-02 3.491298331999999949e+00
3.504217354000000118e+00 0.000000000000000000e+00 0.000000000000000000e+00 9.067186400000000479e-02 3.405204122999999861e+00 0.000000000000000000e+00 -6.732936100000000423e-02 5.833006999999999775e-02 3.491298331999999949e+00
3.504217354000000118e+00 0.000000000000000000e+00 0.000000000000000000e+00 9.067186400000000479e-02 3.405204122999999861e+00 0.000000000000000000e+00 -6.732936100000000423e-02 5.833006999999999775e-02 3.491298331999999949e+00
3.504217354000000118e+00 0.000000000000000000e+00 0.000000000000000000e+00 9.067186400000000479e-02 3.405204122999999861e+00 0.000000000000000000e+00 -6.732936100000000423e-02 5.833006999999999775e-02 3.491298331999999949e+00
3.476306709000000161e+00 0.000000000000000000e+00 0.000000000000000000e+00 -5.085105799999999759e-02 3.492998544000000205e+00 0.000000000000000000e+00 2.165183799999999964e-02 -7.643563400000000230e-02 3.419302994000000151e+00
3.476306709000000161e+00 0.000000000000000000e+00 0.000000000000000000e+00 -5.085105799999999759e-02 3.492998544000000205e+00 0.000000000000000000e+00 2.165183799999999964e-02 -7.643563400000000230e-02 3.419302994000000151e+00
3.476306709000000161e+00 0.000000000000000000e+00 0.000000000000000000e+00 -5.085105799999999759e-02 3.492998544000000205e+00 0.000000000000000000e+00 2.165183799999999964e-02 -7.643563400000000230e-02 3.419302994000000151e+00
3.476306709000000161e+00 0.000000000000000000e+00 0.000000000000000000e+00 -5.085105799999999759e-02 3.492998544000000205e+00 0.000000000000000000e+00 2.165183799999999964e-02 -7.643563400000000230e-02 3.419302994000000151e+00
3.476306709000000161e+00 0.000000000000000000e+00 0.000000000000000000e+00 -5.085105799999999759e-02 3.492998544000000205e+00 0.000000000000000000e+00 2.165183799999999964e-02 -7.643563400000000230e-02 3.419302994000000151e+00
3.425824643999999974e+00 0.000000000000000000e+00 0.000000000000000000e+00 8.988927700000000354e-02 3.495585484999999881e+00 0.000000000000000000e+00 5.646089099999999916e-02 3.087327600000000158e-02 3.527678593000000085e+00
3.425824643999999974e+00 0.000000000000000000e+00 0.000000000000000000e+00 8.988927700000000354e-02 3.495585484999999881e+00 0.000000000000000000e+00 5.646089099999999916e-02 3.087327600000000158e-02 3.527678593000000085e+00
3.425824643999999974e+00 0.000000000000000000e+00 0.000000000000000000e+00 8.988927700000000354e-02 3.495585484999999881e+00 0.000000000000000000e+00 5.646089099999999916e-02 3.087327600000000158e-02 3.527678593000000085e+00
3.425824643999999974e+00 0.000000000000000000e+00 0.000000000000000000e+00 8.988927700000000354e-02 3.495585484999999881e+00 0.000000000000000000e+00 5.646089099999999916e-02 3.087327600000000158e-02 3.527678593000000085e+00
3.425824643999999974e+00 0.000000000000000000e+00 0.000000000000000000e+00 8.988927700000000354e-02 3.495585484999999881e+00 0.000000000000000000e+00 5.646089099999999916e-02 3.087327600000000158e-02 3.527678593000000085e+00
3.537187112999999883e+00 0.000000000000000000e+00 0.000000000000000000e+00 -1.793467400000000114e-02 3.486963178999999968e+00 0.000000000000000000e+00 1.797116099999999939e-02 -1.875077199999999888e-02 3.486832868000000030e+00
3.537187112999999883e+00 0.000000000000000000e+00 0.000000000000000000e+00 -1.793467400000000114e-02 3.486963178999999968e+00 0.000000000000000000e+00 1.797116099999999939e-02 -1.875077199999999888e-02 3.486832868000000030e+00
3.537187112999999883e+00 0.000000000000000000e+00 0.000000000000000000e+00 -1.793467400000000114e-02 3.486963178999999968e+00 0.000000000000000000e+00 1.797116099999999939e-02 -1.875077199999999888e-02 3.486832868000000030e+00
3.537187112999999883e+00 0.000000000000000000e+00 0.000000000000000000e+00 -1.793467400000000114e-02 3.486963178999999968e+00 0.000000000000000000e+00 1.797116099999999939e-02 -1.875077199999999888e-02 3.486832868000000030e+00
3.537187112999999883e+00 0.000000000000000000e+00 0.000000000000000000e+00 -1.793467400000000114e-02 3.486963178999999968e+00 0.000000000000000000e+00 1.797116099999999939e-02 -1.875077199999999888e-02 3.486832868000000030e+00
3.433416536999999824e+00 0.000000000000000000e+00 0.000000000000000000e+00 9.925644399999999923e-02 3.420758633000000160e+00 0.000000000000000000e+00 -3.924177300000000063e-02 -9.511870599999999731e-02 3.362684760000000050e+00
3.433416536999999824e+00 0.000000000000000000e+00 0.000000000000000000e+00 9.925644399999999923e-02 3.420758633000000160e+00 0.000000000000000000e+00 -3.924177300000000063e-02 -9.511870599999999731e-02 3.362684760000000050e+00
3.433416536999999824e+00 0.000000000000000000e+00 0.000000000000000000e+00 9.925644399999999923e-02 3.420758633000000160e+00 0.000000000000000000e+00 -3.924177300000000063e-02 -9.511870599999999731e-02 3.362684760000000050e+00
3.433416536999999824e+00 0.000000000000000000e+00 0.000000000000000000e+00 9.925644399999999923e-02 3.420758633000000160e+00 0.000000000000000000e+00 -3.924177300000000063e-02 -9.511870599999999731e-02 3.362684760000000050e+00
3.433416536999999824e+00 0.000000000000000000e+00 0.000000000000000000e+00 9.925644399999999923e-02 3.420758633000000160e+00 0.000000000000000000e+00 -3.924177300000000063e-02 -9.511870599999999731e-02 3.362684760000000050e+00
3.478983787999999855e+00 0.000000000000000000e+00 0.000000000000000000e+00 5.877094299999999910e-02 3.517234102000000195e+00 0.000000000000000000e+00 1.501352700000000047e-02 -4.131879999999999884e-04 3.377808390999999855e+00
3.478983787999999855e+00 0.000000000000000000e+00 0.000000000000000000e+00 5.877094299999999910e-02 3.517234102000000195e+00 0.000000000000000000e+00 1.501352700000000047e-02 -4.131879999999999884e-04 3.377808390999999855e+00
3.478983787999999855e+00 0.000000000000000000e+00 0.000000000000000000e+00 5.877094299999999910e-02 3.517234102000000195e+00 0.000000000000000000e+00 1.501352700000000047e-02 -4.131879999999999884e-04 3.377808390999999855e+00
3.478983787999999855e+00 0.000000000000000000e+00 0.000000000000000000e+00 5.877094299999999910e-02 3.517234102000000195e+00 0.000000000000000000e+00 1.501352700000000047e-02 -4.131879999999999884e-04 3.377808390999999855e+00
3.478983787999999855e+00 0.000000000000000000e+00 0.000000000000000000e+00 5.877094299999999910e-02 3.517234102000000195e+00 0.000000000000000000e+00 1.501352700000000047e-02 -4.131879999999999884e-04 3.377808390999999855e+00
3.489484025999999961e+00 0.000000000000000000e+00 0.000000000000000000e+00 7.814566100000000515e-02 3.422676533999999826e+00 0.000000000000000000e+00 6.702111299999999328e-02 -1.046386950000000038e-01 3.498208084999999912e+00
3.489484025999999961e+00 0.000000000000000000e+00 0.000000000000000000e+00 7.814566100000000515e-02 3.422676533999999826e+00 0.000000000000000000e+00 6.702111299999999328e-02 -1.046386950000000038e-01 3.498208084999999912e+00
3.489484025999999961e+00 0.000000000000000000e+00 0.000000000000000000e+00 7.814566100000000515e-02 3.422676533999999826e+00 0.000000000000000000e+00 6.702111299999999328e-02 -1.046386950000000038e-01 3.498208084999999912e+00
3.489484025999999961e+00 0.000000000000000000e+00 0.000000000000000000e+00 7.814566100000000515e-02 3.422676533999999826e+00 0.000000000000000000e+00 6.702111299999999328e-02 -1.046386950000000038e-01 3.498208084999999912e+00
3.489484025999999961e+00 0.000000000000000000e+00 0.000000000000000000e+00 7.814566100000000515e-02 3.422676533999999826e+00 0.000000000000000000e+00 6.702111299999999328e-02 -1.046386950000000038e-01 3.498208084999999912e+00
3.450394198000000134e+00 0.000000000000000000e+00 0.000000000000000000e+00 5.326932999999999668e-02 3.407669997999999811e+00 0.000000000000000000e+00 -8.399079299999999415e-02 9.769726900000000325e-02 3.541987236999999844e+00
3.450394198000000134e+00 0.000000000000000000e+00 0.000000000000000000e+00 5.326932999999999668e-02 3.407669997999999811e+00 0.000000000000000000e+00 -8.399079299999999415e-02 9.769726900000000325e-02 3.541987236999999844e+00
3.450394198000000134e+00 0.000000000000000000e+00 0.000000000000000000e+00 5.326932999999999668e-02 3.407669997999999811e+00 0.000000000000000000e+00 -8.399079299999999415e-02 9.769726900000000325e-02 3.541987236999999844e+00
3.450394198000000134e+00 0.000000000000000000e+00 0.000000000000000000e+00 5.326932999999999668e-02 3.407669997999999811e+00 0.000000000000000000e+00 -8.399079299999999415e-02 9.769726900000000325e-02 3.541987236999999844e+00
3.450394198000000134e+00 0.000000000000000000e+00 0.000000000000000000e+00 5.326932999999999668e-02 3.407669997999999811e+00 0.000000000000000000e+00 -8.399079299999999415e-02 9.769726900000000325e-02 3.541987236999999844e+00
3.548842301000000088e+00 0.000000000000000000e+00 0.000000000000000000e+00 0.000000000000000000e+00 3.548842301000000088e+00 0.000000000000000000e+00 0.000000000000000000e+00 0.000000000000000000e+00 3.548842301000000088e+00
3.548842301000000088e+00 0.000000000000000000e+00 0.000000000000000000e+00 0.000000000000000000e+00 3.548842301000000088e+00 0.000000000000000000e+00 0.000000000000000000e+00 0.000000000000000000e+00 3.548842301000000088e+00
3.548842301000000088e+00 0.000000000000000000e+00 0.000000000000000000e+00 0.000000000000000000e+00 3.548842301000000088e+00 0.000000000000000000e+00 0.000000000000000000e+00 0.000000000000000000e+00 3.548842301000000088e+00
3.548842301000000088e+00 0.000000000000000000e+00 0.000000000000000000e+00 0.000000000000000000e+00 3.548842301000000088e+00 0.000000000000000000e+00 0.000000000000000000e+00 0.000000000000000000e+00 3.548842301000000088e+00
3.548842301000000088e+00 0.000000000000000000e+00 0.000000000000000000e+00 0.000000000000000000e+00 3.548842301000000088e+00 0.000000000000000000e+00 0.000000000000000000e+00 0.000000000000000000e+00 3.548842301000000088e+00
3.571456007000000099e+00 0.000000000000000000e+00 0.000000000000000000e+00 -2.695979000000000084e-02 3.471980963000000031e+00 0.000000000000000000e+00 7.817512000000000419e-03 -6.220138299999999898e-02 3.650827510000000053e+00
3.571456007000000099e+00 0.000000000000000000e+00 0.000000000000000000e+00 -2.695979000000000084e-02 3.471980963000000031e+00 0.000000000000000000e+00 7.817512000000000419e-03 -6.220138299999999898e-02 3.650827510000000053e+00
3.571456007000000099e+00 0.000000000000000000e+00 0.000000000000000000e+00 -2.695979000000000084e-02 3.471980963000000031e+00 0.000000000000000000e+00 7.817512000000000419e-03 -6.220138299999999898e-02 3.650827510000000053e+00
3.571456007000000099e+00 0.000000000000000000e+00 0.000000000000000000e+00 -2.695979000000000084e-02 3.471980963000000031e+00 0.000000000000000000e+00 7.817512000000000419e-03 -6.220138299999999898e-02 3.650827510000000053e+00
3.571456007000000099e+00 0.000000000000000000e+00 0.000000000000000000e+00 -2.695979000000000084e-02 3.471980963000000031e+00 0.000000000000000000e+00 7.817512000000000419e-03 -6.220138299999999898e-02 3.650827510000000053e+00
3.597603984000000032e+00 0.000000000000000000e+00 0.000000000000000000e+00 4.959079300000000107e-02 3.608978658999999922e+00 0.000000000000000000e+00 -9.069501200000000540e-02 7.502813499999999580e-02 3.593852145000000053e+00
3.597603984000000032e+00 0.000000000000000000e+00 0.000000000000000000e+00 4.959079300000000107e-02 3.608978658999999922e+00 0.000000000000000000e+00 -9.069501200000000540e-02 7.502813499999999580e-02 3.593852145000000053e+00
3.597603984000000032e+00 0.000000000000000000e+00 0.000000000000000000e+00 4.959079300000000107e-02 3.608978658999999922e+00 0.000000000000000000e+00 -9.069501200000000540e-02 7.502813499999999580e-02 3.593852145000000053e+00
3.597603984000000032e+00 0.000000000000000000e+00 0.000000000000000000e+00 4.959079300000000107e-02 3.608978658999999922e+00 0.000000000000000000e+00 -9.069501200000000540e-02 7.502813499999999580e-02 3.593852145000000053e+00
3.597603984000000032e+00 0.000000000000000000e+00 0.000000000000000000e+00 4.959079300000000107e-02 3.608978658999999922e+00 0.000000000000000000e+00 -9.069501200000000540e-02 7.502813499999999580e-02 3.593852145000000053e+00
3.556226032000000092e+00 0.000000000000000000e+00 0.000000000000000000e+00 8.789853499999999986e-02 3.569137699000000108e+00 0.000000000000000000e+00 7.087670000000000081e-02 2.082324400000000117e-02 3.581386740000000124e+00
3.556226032000000092e+00 0.000000000000000000e+00 0.000000000000000000e+00 8.789853499999999986e-02 3.569137699000000108e+00 0.000000000000000000e+00 7.087670000000000081e-02 2.082324400000000117e-02 3.581386740000000124e+00
3.556226032000000092e+00 0.000000000000000000e+00 0.000000000000000000e+00 8.789853499999999986e-02 3.569137699000000108e+00 0.000000000000000000e+00 7.087670000000000081e-02 2.082324400000000117e-02 3.581386740000000124e+00
3.556226032000000092e+00 0.000000000000000000e+00 0.000000000000000000e+00 8.789853499999999986e-02 3.569137699000000108e+00 0.000000000000000000e+00 7.087670000000000081e-02 2.082324400000000117e-02 3.581386740000000124e+00
3.556226032000000092e+00 0.000000000000000000e+00 0.000000000000000000e+00 8.789853499999999986e-02 3.569137699000000108e+00 0.000000000000000000e+00 7.087670000000000081e-02 2.082324400000000117e-02 3.581386740000000124e+00
3.583519496000000082e+00 0.000000000000000000e+00 0.000000000000000000e+00 6.187816399999999939e-02 3.521120418999999835e+00 0.000000000000000000e+00 -6.349863999999999509e-02 4.899719999999999770e-04 3.477677465999999828e+00
3.583519496000000082e+00 0.000000000000000000e+00 0.000000000000000000e+00 6.187816399999999939e-02 3.521120418999999835e+00 0.000000000000000000e+00 -6.349863999999999509e-02 4.899719999999999770e-04 3.477677465999999828e+00
3.583519496000000082e+00 0.000000000000000000e+00 0.000000000000000000e+00 6.187816399999999939e-02 3.521120418999999835e+00 0.000000000000000000e+00 -6.349863999999999509e-02 4.899719999999999770e-04 3.477677465999999828e+00
3.583519496000000082e+00 0.000000000000000000e+00 0.000000000000000000e+00 6.187816399999999939e-02 3.521120418999999835e+00 0.000000000000000000e+00 -6.349863999999999509e-02 4.899719999999999770e-04 3.477677465999999828e+00
3.583519496000000082e+00 0.000000000000000000e+00 0.000000000000000000e+00 6.187816399999999939e-02 3.521120418999999835e+00 0.000000000000000000e+00 -6.349863999999999509e-02 4.899719999999999770e-04 3.477677465999999828e+00
3.624416990999999921e+00 0.000000000000000000e+00 0.000000000000000000e+00 -2.359009399999999895e-02 3.605179559000000200e+00 0.000000000000000000e+00 -5.958392900000000075e-02 2.470474099999999881e-02 3.603559060999999897e+00
3.624416990999999921e+00 0.000000000000000000e+00 0.000000000000000000e+00 -2.359009399999999895e-02 3.605179559000000200e+00 0.000000000000000000e+00 -5.958392900000000075e-02 2.470474099999999881e-02 3.603559060999999897e+00
3.624416990999999921e+00 0.000000000000000000e+00 0.000000000000000000e+00 -2.359009399999999895e-02 3.605179559000000200e+00 0.000000000000000000e+00 -5.958392900000000075e-02 2.470474099999999881e-02 3.603559060999999897e+00
3.624416990999999921e+00 0.000000000000000000e+00 0.000000000000000000e+00 -2.359009399999999895e-02 3.605179559000000200e+00 0.000000000000000000e+00 -5.958392900000000075e-02 2.470474099999999881e-02 3.603559060999999897e+00
3.624416990999999921e+00 0.000000000000000000e+00 0.000000000000000000e+00 -2.359009399999999895e-02 3.605179559000000200e+00 0.000000000000000000e+00 -5.958392900000000075e-02 2.470474099999999881e-02 3.603559060999999897e+00
3.485128628000000006e+00 0.000000000000000000e+00 0.000000000000000000e+00 2.780874100000000140e-02 3.612133346999999883e+00 0.000000000000000000e+00 -4.516380799999999973e-02 8.783311000000000243e-03 3.582507115999999936e+00
3.485128628000000006e+00 0.000000000000000000e+00 0.000000000000000000e+00 2.780874100000000140e-02 3.612133346999999883e+00 0.000000000000000000e+00 -4.516380799999999973e-02 8.783311000000000243e-03 3.582507115999999936e+00