0.000000000000000000e+00 0.000000000000000000e+00 0.000000000000000000e+00 0.000000000000000000e+00 1.671059999999999990e+00 1.671059999999999990e+00 1.671059999999999990e+00 0.000000000000000000e+00 1.671059999999999990e+00 1.671059999999999990e+00 1.671059999999999990e+00 0.000000000000000000e+00
3.341590000000000060e+00 3.340380000000000127e+00 3.341670000000000140e+00 3.341419999999999835e+00 1.672279999999999989e+00 1.669529999999999959e+00 1.671010000000000106e+00 1.899999999999999996e-03 1.675459999999999949e+00 1.672320000000000029e+00 1.669669999999999987e+00 3.339690000000000047e+00
3.341060000000000141e+00 3.338639999999999830e+00 3.341219999999999857e+00 3.340720000000000134e+00 1.673510000000000053e+00 1.668009999999999993e+00 1.670970000000000066e+00 3.799999999999999992e-03 1.679850000000000065e+00 1.673589999999999911e+00 1.668279999999999985e+00 3.337260000000000115e+00
3.340539999999999843e+00 3.336910000000000043e+00 3.340780000000000083e+00 3.340019999999999989e+00 1.674739999999999895e+00 1.666479999999999961e+00 1.670919999999999961e+00 5.689999999999999745e-03 1.684239999999999959e+00 1.674860000000000015e+00 1.666889999999999983e+00 3.334839999999999804e+00
3.340009999999999923e+00 3.335179999999999811e+00 3.340339999999999865e+00 3.339329999999999909e+00 1.675959999999999894e+00 1.664959999999999996e+00 1.670879999999999921e+00 7.590000000000000392e-03 1.688630000000000075e+00 1.676120000000000054e+00 1.665499999999999980e+00 3.332419999999999938e+00
4.930000000000000354e-03 3.950000000000000386e-03 6.329999999999999689e-03 3.347500000000000142e+00 1.663939999999999975e+00 1.699950000000000072e+00 1.676120000000000054e+00 -9.050000000000000752e-03 1.703079999999999927e+00 1.675750000000000073e+00 1.656169999999999920e+00 3.401380000000000070e+00
5.040000000000000209e-03 5.000000000000000104e-03 8.040000000000000271e-03 3.347850000000000215e+00 1.661529999999999951e+00 1.698919999999999986e+00 1.675319999999999920e+00 -4.810000000000000039e-03 1.703689999999999927e+00 1.676080000000000014e+00 1.653280000000000083e+00 3.400090000000000057e+00
5.159999999999999656e-03 6.060000000000000282e-03 9.749999999999999986e-03 3.348190000000000222e+00 1.659119999999999928e+00 1.697899999999999965e+00 1.674530000000000074e+00 -5.599999999999999509e-04 1.704290000000000083e+00 1.676409999999999956e+00 1.650379999999999958e+00 3.398810000000000109e+00
5.279999999999999971e-03 7.110000000000000001e-03 1.145000000000000011e-02 3.348539999999999850e+00 1.656719999999999970e+00 1.696870000000000100e+00 1.673740000000000006e+00 3.680000000000000111e-03 1.704890000000000017e+00 1.676739999999999897e+00 1.647499999999999964e+00 3.397530000000000161e+00
5.389999999999999826e-03 8.149999999999999259e-03 1.315000000000000023e-02 3.348889999999999922e+00 1.654320000000000013e+00 1.695850000000000080e+00 1.672949999999999937e+00 7.910000000000000364e-03 1.705489999999999950e+00 1.677059999999999995e+00 1.644609999999999905e+00 3.396250000000000213e+00
3.370699999999999807e+00 -2.197999999999999954e-02 3.363780000000000214e+00 3.343150000000000066e+00 1.682909999999999906e+00 1.677140000000000075e+00 1.708490000000000064e+00 3.378620000000000179e+00 1.684409999999999963e+00 1.663070000000000048e+00 1.695729999999999960e+00 1.020000000000000073e-03
6.901000000000000190e-02 -2.019999999999999921e-02 3.362389999999999990e+00 3.344269999999999854e+00 1.682970000000000077e+00 1.675729999999999942e+00 1.707160000000000011e+00 3.375809999999999977e+00 1.688299999999999912e+00 1.729419999999999957e+00 1.673920000000000075e+00 3.366870000000000029e+00
7.068000000000000671e-02 -1.842999999999999847e-02 3.361000000000000210e+00 3.345380000000000020e+00 1.683030000000000026e+00 1.674309999999999965e+00 1.705819999999999892e+00 3.373009999999999842e+00 1.692190000000000083e+00 1.727970000000000006e+00 1.674889999999999990e+00 3.365779999999999994e+00
7.235999999999999377e-02 -1.666000000000000120e-02 3.359620000000000051e+00 3.346499999999999808e+00 1.683089999999999975e+00 1.672900000000000054e+00 1.704490000000000061e+00 3.370210000000000150e+00 1.696069999999999967e+00 1.726509999999999989e+00 1.675859999999999905e+00 3.364689999999999959e+00
7.402999999999999858e-02 -1.489000000000000046e-02 3.358229999999999826e+00 3.347609999999999975e+00 1.683140000000000081e+00 1.671499999999999986e+00 1.703149999999999942e+00 3.367420000000000080e+00 1.699950000000000072e+00 1.725060000000000038e+00 1.676830000000000043e+00 3.363599999999999923e+00
3.419540000000000024e+00 1.003899999999999931e-01 3.428799999999999848e+00 -2.205000000000000016e-02 1.733249999999999957e+00 1.710139999999999993e+00 1.648730000000000029e+00 3.409359999999999946e+00 1.715940000000000021e+00 1.671640000000000015e+00 1.677089999999999970e+00 6.760000000000000384e-03
2.320000000000000014e-03 6.499999999999999702e-04 1.049999999999999935e-03 3.384139999999999926e+00 1.736180000000000057e+00 1.709680000000000089e+00 1.647180000000000089e+00 3.407119999999999926e+00 1.716150000000000064e+00 1.673920000000000075e+00 1.675880000000000036e+00 5.930000000000000375e-03
4.680000000000000132e-03 1.170000000000000033e-03 2.139999999999999975e-03 3.381050000000000111e+00 1.739100000000000090e+00 1.709219999999999962e+00 1.645629999999999926e+00 3.404879999999999907e+00 1.716360000000000108e+00 1.676199999999999912e+00 1.674679999999999946e+00 5.080000000000000314e-03
7.040000000000000251e-03 1.690000000000000096e-03 3.229999999999999798e-03 3.377959999999999852e+00 1.742019999999999902e+00 1.708760000000000057e+00 1.644079999999999986e+00 3.402639999999999887e+00 1.716569999999999929e+00 1.678490000000000038e+00 1.673480000000000079e+00 4.239999999999999845e-03
9.400000000000000369e-03 2.210000000000000159e-03 4.320000000000000055e-03 3.374880000000000102e+00 1.744939999999999936e+00 1.708299999999999930e+00 1.642530000000000046e+00 3.400409999999999933e+00 1.716790000000000038e+00 1.680770000000000097e+00 1.672279999999999989e+00 3.399999999999999811e-03
8.311999999999999944e-02 9.818999999999999950e-02 3.407529999999999948e+00 3.464649999999999785e+00 1.764869999999999939e+00 1.704779999999999962e+00 1.737519999999999953e+00 4.975999999999999868e-02 1.704769999999999897e+00 1.806149999999999922e+00 1.817499999999999893e+00 3.412529999999999841e+00
8.140999999999999626e-02 1.016600000000000004e-01 3.408409999999999940e+00 3.464609999999999967e+00 1.763819999999999943e+00 1.702479999999999993e+00 1.738930000000000087e+00 4.816999999999999754e-02 1.707910000000000039e+00 1.806499999999999995e+00 1.816680000000000073e+00 3.410820000000000185e+00
7.969999999999999307e-02 1.051300000000000012e-01 3.409289999999999932e+00 3.464560000000000084e+00 1.762769999999999948e+00 1.700180000000000025e+00 1.802229999999999999e+00 3.487019999999999786e+00 1.711039999999999894e+00 1.806850000000000067e+00 1.815849999999999964e+00 3.409110000000000085e+00
7.799000000000000377e-02 1.086000000000000021e-01 3.410159999999999858e+00 3.464519999999999822e+00 1.761719999999999953e+00 1.697889999999999899e+00 1.803639999999999910e+00 3.485430000000000028e+00 1.714169999999999972e+00 1.807190000000000074e+00 1.815020000000000078e+00 3.407399999999999984e+00
3.472929999999999851e+00 1.120700000000000029e-01 3.411049999999999915e+00 3.464469999999999938e+00 1.760669999999999957e+00 1.695589999999999931e+00 1.805050000000000043e+00 3.483839999999999826e+00 1.717300000000000049e+00 1.807539999999999925e+00 1.814200000000000035e+00 3.405689999999999884e+00
1.719999999999999958e-03 3.600000000000000227e-04 1.479999999999999979e-03 3.311479999999999979e+00 1.713039999999999896e+00 1.689389999999999947e+00 1.652660000000000018e+00 4.651999999999999885e-02 1.679799999999999960e+00 1.604970000000000008e+00 1.752170000000000005e+00 3.364300000000000068e+00
4.320000000000000055e-03 1.030000000000000100e-03 1.020000000000000073e-03 3.307830000000000048e+00 1.713649999999999896e+00 1.687149999999999928e+00 1.652060000000000084e+00 4.764999999999999791e-02 1.680790000000000006e+00 1.606619999999999937e+00 1.749759999999999982e+00 3.366010000000000169e+00
6.919999999999999936e-03 1.690000000000000096e-03 5.599999999999999509e-04 3.304180000000000117e+00 1.714259999999999895e+00 1.684909999999999908e+00 1.651469999999999994e+00 4.877999999999999697e-02 1.681780000000000053e+00 1.608270000000000088e+00 1.747360000000000024e+00 3.367719999999999825e+00
9.509999999999999357e-03 2.360000000000000119e-03 1.000000000000000048e-04 3.300539999999999807e+00 1.714869999999999894e+00 1.682660000000000045e+00 1.650870000000000060e+00 4.991000000000000297e-02 1.682779999999999943e+00 1.609909999999999952e+00 1.744960000000000067e+00 3.369419999999999860e+00
-4.275999999999999940e-02 9.023000000000000465e-02 3.369270000000000209e+00 3.296910000000000007e+00 1.715479999999999894e+00 1.680420000000000025e+00 1.650269999999999904e+00 5.102999999999999897e-02 1.683780000000000054e+00 1.666420000000000012e+00 1.655350000000000099e+00 1.500000000000000031e-03
3.300120000000000164e+00 3.276310000000000056e+00 6.049999999999999822e-03 -3.481999999999999679e-02 1.644109999999999960e+00 1.632370000000000099e+00 1.613529999999999909e+00 3.284019999999999939e+00 1.634430000000000049e+00 1.645780000000000021e+00 1.653380000000000072e+00 3.264120000000000132e+00
-6.350999999999999701e-02 3.276990000000000069e+00 5.859999999999999758e-03 -3.370999999999999691e-02 1.644600000000000062e+00 1.631040000000000045e+00 1.609809999999999963e+00 3.283300000000000107e+00 1.632859999999999978e+00 1.653669999999999973e+00 1.644139999999999935e+00 1.100000000000000039e-04
-6.040999999999999842e-02 3.277680000000000149e+00 5.660000000000000100e-03 -3.259000000000000091e-02 1.645089999999999941e+00 1.629699999999999926e+00 1.606090000000000018e+00 3.282579999999999831e+00 1.631299999999999972e+00 1.653180000000000094e+00 1.643690000000000095e+00 3.210000000000000180e-03
-5.732000000000000289e-02 3.278360000000000163e+00 5.449999999999999983e-03 -3.148000000000000104e-02 1.645569999999999977e+00 1.628370000000000095e+00 1.602389999999999981e+00 3.281870000000000065e+00 1.629729999999999901e+00 1.652679999999999927e+00 1.643219999999999903e+00 6.300000000000000044e-03
-5.423000000000000043e-02 3.279049999999999798e+00 5.239999999999999866e-03 -3.037000000000000116e-02 1.646060000000000079e+00 1.627050000000000107e+00 1.598689999999999944e+00 3.281159999999999854e+00 1.628179999999999961e+00 1.652179999999999982e+00 1.642759999999999998e+00 9.400000000000000369e-03
3.258809999999999985e+00 4.600000000000000139e-04 1.020000000000000073e-03 -5.598000000000000198e-02 1.701310000000000100e+00 1.644870000000000054e+00 1.608600000000000030e+00 -1.064999999999999974e-02 1.645140000000000047e+00 1.545660000000000034e+00 1.685519999999999907e+00 3.288419999999999899e+00
3.258030000000000204e+00 2.999999999999999737e-04 8.999999999999999754e-04 3.201090000000000213e+00 1.704499999999999904e+00 1.643960000000000088e+00 1.608190000000000008e+00 -1.013000000000000012e-02 1.645180000000000087e+00 1.548880000000000035e+00 1.681969999999999965e+00 3.289410000000000167e+00
3.257249999999999979e+00 1.399999999999999877e-04 7.799999999999999859e-04 3.199059999999999793e+00 1.707699999999999996e+00 1.643059999999999965e+00 1.607779999999999987e+00 -9.620000000000000079e-03 1.645219999999999905e+00 1.552100000000000035e+00 1.678420000000000023e+00 3.290399999999999991e+00
3.197080000000000144e+00 3.432840000000000114e+00 6.599999999999999964e-04 3.197029999999999816e+00 1.710890000000000022e+00 1.642149999999999999e+00 1.607359999999999900e+00 -9.110000000000000042e-03 1.645259999999999945e+00 1.610440000000000094e+00 1.704839999999999911e+00 1.100000000000000039e-04
3.196309999999999985e+00 3.432679999999999954e+00 5.299999999999999807e-04 3.195009999999999906e+00 1.714080000000000048e+00 1.641250000000000098e+00 1.606940000000000035e+00 -8.600000000000000006e-03 1.645299999999999985e+00 1.613650000000000029e+00 1.701300000000000034e+00 1.090000000000000040e-03
3.399080000000000101e+00 3.402369999999999894e+00 3.361619999999999830e+00 5.392000000000000265e-02 1.703170000000000073e+00 1.680229999999999890e+00 1.672960000000000003e+00 4.784000000000000058e-02 1.688690000000000024e+00 1.665640000000000009e+00 1.657129999999999992e+00 1.490000000000000005e-03
3.399770000000000181e+00 3.399500000000000188e+00 3.358019999999999783e+00 5.390999999999999959e-02 1.705740000000000034e+00 1.683599999999999985e+00 1.672700000000000076e+00 4.775999999999999690e-02 1.688509999999999955e+00 1.665210000000000079e+00 1.657510000000000039e+00 1.899999999999999996e-03
1.046099999999999947e-01 3.396640000000000104e+00 3.354429999999999801e+00 5.390000000000000346e-02 1.708320000000000061e+00 1.686960000000000015e+00 1.712369999999999948e+00 3.357099999999999973e+00 1.688320000000000043e+00 1.664789999999999992e+00 1.657880000000000020e+00 2.309999999999999987e-03
1.053000000000000047e-01 3.393780000000000019e+00 3.350839999999999819e+00 5.387999999999999734e-02 1.710890000000000022e+00 1.690330000000000110e+00 1.712120000000000086e+00 3.357009999999999827e+00 1.688129999999999908e+00 1.664360000000000062e+00 1.658250000000000002e+00 2.720000000000000195e-03
1.059800000000000048e-01 3.390930000000000000e+00 3.347259999999999902e+00 5.387000000000000122e-02 1.713459999999999983e+00 1.693680000000000074e+00 1.711880000000000068e+00 3.356930000000000192e+00 1.687939999999999996e+00 1.663939999999999975e+00 1.658619999999999983e+00 3.139999999999999996e-03
1.762000000000000025e-02 3.297390000000000043e+00 3.297919999999999963e+00 1.430000000000000021e-02 1.650369999999999893e+00 1.647469999999999990e+00 1.682709999999999928e+00 3.302070000000000061e+00 1.650660000000000016e+00 1.675580000000000069e+00 1.651259999999999950e+00 4.830000000000000092e-03
6.040000000000000230e-02 3.303100000000000147e+00 1.180000000000000059e-03 1.085000000000000027e-02 1.653480000000000061e+00 1.645759999999999890e+00 1.682749999999999968e+00 3.301390000000000047e+00 1.650460000000000038e+00 1.676180000000000003e+00 1.650339999999999918e+00 4.780000000000000394e-03
6.320000000000000617e-02 3.301590000000000025e+00 3.139999999999999996e-03 7.400000000000000328e-03 1.656590000000000007e+00 1.644050000000000011e+00 1.682790000000000008e+00 3.300710000000000033e+00 1.650269999999999904e+00 1.676779999999999937e+00 1.649420000000000108e+00 4.720000000000000237e-03
6.600000000000000311e-02 3.300089999999999968e+00 5.100000000000000366e-03 3.305309999999999970e+00 1.659690000000000110e+00 1.642339999999999911e+00 1.682839999999999892e+00 3.300030000000000019e+00 1.650079999999999991e+00 1.677380000000000093e+00 1.648490000000000011e+00 4.660000000000000080e-03
6.879000000000000392e-02 3.298589999999999911e+00 7.049999999999999843e-03 3.301870000000000083e+00 1.662789999999999990e+00 1.640640000000000098e+00 1.682879999999999932e+00 3.299350000000000005e+00 1.649890000000000079e+00 1.677990000000000093e+00 1.647569999999999979e+00 4.599999999999999922e-03
0.000000000000000000e+00 0.000000000000000000e+00 0.000000000000000000e+00 0.000000000000000000e+00 1.722739999999999938e+00 1.722739999999999938e+00 1.722739999999999938e+00 0.000000000000000000e+00 1.722739999999999938e+00 1.722739999999999938e+00 1.722739999999999938e+00 0.000000000000000000e+00
7.299999999999999632e-04 3.443579999999999863e+00 1.360000000000000098e-03 2.619999999999999933e-03 1.725170000000000092e+00 1.720329999999999915e+00 1.721519999999999939e+00 3.443169999999999842e+00 1.723819999999999908e+00 1.720609999999999973e+00 1.724509999999999987e+00 3.445450000000000124e+00
1.449999999999999900e-03 3.441689999999999916e+00 2.710000000000000169e-03 5.250000000000000326e-03 1.727600000000000025e+00 1.717919999999999892e+00 1.720290000000000097e+00 3.440869999999999873e+00 1.724900000000000100e+00 1.718480000000000008e+00 1.726280000000000037e+00 3.445419999999999927e+00
2.180000000000000080e-03 3.439789999999999903e+00 4.069999999999999833e-03 7.870000000000000259e-03 1.730029999999999957e+00 1.715519999999999934e+00 1.719070000000000098e+00 3.438569999999999904e+00 1.725980000000000070e+00 1.716360000000000108e+00 1.728050000000000086e+00 3.445390000000000175e+00
2.909999999999999826e-03 3.437899999999999956e+00 5.420000000000000338e-03 1.048999999999999932e-02 1.732450000000000045e+00 1.713109999999999911e+00 1.717850000000000099e+00 3.436269999999999936e+00 1.727060000000000040e+00 1.714239999999999986e+00 1.729810000000000070e+00 3.445359999999999978e+00
3.571000000000000174e+00 3.429359999999999964e+00 3.500000000000000073e-03 -6.669999999999999714e-03 1.751430000000000042e+00 1.759079999999999977e+00 1.695770000000000000e+00 3.608000000000000096e-02 1.759579999999999922e+00 1.786340000000000039e+00 1.714329999999999909e+00 9.200000000000000278e-04
3.570219999999999949e+00 3.431999999999999940e+00 5.299999999999999807e-04 -6.530000000000000214e-03 1.750969999999999915e+00 1.758359999999999923e+00 1.782310000000000061e+00 3.466619999999999813e+00 1.759959999999999969e+00 1.786960000000000104e+00 1.715389999999999970e+00 4.230000000000000253e-03
3.381860000000000088e+00 6.782000000000000528e-02 3.514609999999999790e+00 -6.389999999999999847e-03 1.750510000000000010e+00 1.757640000000000091e+00 1.782319999999999904e+00 3.463379999999999903e+00 1.760329999999999950e+00 1.787579999999999947e+00 1.716439999999999966e+00 7.539999999999999827e-03
3.381089999999999929e+00 7.045999999999999486e-02 3.511639999999999873e+00 -6.250000000000000347e-03 1.750050000000000106e+00 1.756920000000000037e+00 1.782329999999999970e+00 3.460150000000000059e+00 1.760699999999999932e+00 1.788189999999999946e+00 1.717500000000000027e+00 1.085999999999999986e-02
3.380320000000000213e+00 7.309000000000000219e-02 3.508680000000000021e+00 -6.100000000000000387e-03 1.749589999999999979e+00 1.756210000000000049e+00 1.782340000000000035e+00 3.456910000000000149e+00 1.761069999999999913e+00 1.788799999999999946e+00 1.718560000000000088e+00 1.417000000000000030e-02
2.460000000000000034e-02 3.459080000000000155e+00 3.489860000000000184e+00 3.509510000000000129e+00 1.739100000000000090e+00 1.743679999999999897e+00 1.718040000000000012e+00 2.991999999999999868e-02 1.746110000000000051e+00 1.793570000000000109e+00 1.701349999999999918e+00 2.119999999999999923e-03
3.593300000000000161e+00 3.399189999999999934e+00 1.729999999999999984e-03 3.510590000000000099e+00 1.738769999999999927e+00 1.741610000000000102e+00 1.721090000000000009e+00 3.054000000000000117e-02 1.745069999999999899e+00 1.792289999999999939e+00 1.702630000000000088e+00 2.050000000000000173e-03
3.590460000000000207e+00 3.397619999999999862e+00 4.899999999999999842e-03 3.511660000000000004e+00 1.738429999999999920e+00 1.739540000000000086e+00 1.724140000000000006e+00 3.116000000000000020e-02 1.744040000000000035e+00 1.791009999999999991e+00 1.703910000000000036e+00 1.990000000000000015e-03
3.587610000000000188e+00 3.396059999999999857e+00 8.070000000000000784e-03 3.512739999999999974e+00 1.738089999999999913e+00 1.737470000000000070e+00 1.727179999999999938e+00 3.178000000000000269e-02 1.743000000000000105e+00 1.789730000000000043e+00 1.705189999999999984e+00 1.920000000000000049e-03
3.584760000000000169e+00 3.394509999999999916e+00 1.123000000000000040e-02 3.513819999999999943e+00 1.737740000000000062e+00 1.735409999999999897e+00 1.730229999999999935e+00 3.239999999999999825e-02 1.741970000000000018e+00 1.788450000000000095e+00 1.706469999999999931e+00 1.860000000000000108e-03
2.239000000000000018e-02 -6.776000000000000079e-02 3.417549999999999866e+00 -1.133999999999999939e-02 1.712250000000000050e+00 1.717130000000000045e+00 1.699349999999999916e+00 3.452589999999999826e+00 1.705200000000000049e+00 1.733999999999999986e+00 1.673929999999999918e+00 3.418899999999999828e+00
2.651999999999999844e-02 -6.932000000000000661e-02 3.416920000000000179e+00 -1.239999999999999956e-02 1.711249999999999938e+00 1.717209999999999903e+00 1.699719999999999898e+00 3.454740000000000144e+00 1.704660000000000064e+00 1.708919999999999995e+00 1.750780000000000003e+00 6.899999999999999667e-04
3.064000000000000057e-02 -7.088999999999999468e-02 3.416290000000000049e+00 -1.346999999999999933e-02 1.710259999999999891e+00 1.717289999999999983e+00 1.750950000000000006e+00 -3.610000000000000014e-02 1.704120000000000079e+00 1.705480000000000107e+00 1.751190000000000024e+00 1.779999999999999898e-03
3.477000000000000229e-02 -7.245000000000000051e-02 3.415659999999999918e+00 -1.454000000000000084e-02 1.709260000000000002e+00 1.717370000000000063e+00 1.751319999999999988e+00 -3.395000000000000101e-02 1.703589999999999938e+00 1.702050000000000063e+00 1.751600000000000046e+00 2.870000000000000155e-03
3.889000000000000096e-02 -7.402000000000000246e-02 3.415029999999999788e+00 3.460710000000000175e+00 1.708269999999999955e+00 1.717440000000000078e+00 1.751689999999999969e+00 -3.180000000000000188e-02 1.703049999999999953e+00 1.698630000000000084e+00 1.752000000000000002e+00 3.959999999999999978e-03
3.420319999999999805e+00 5.939999999999999968e-03 5.590000000000000351e-03 7.799999999999999989e-02 1.758359999999999923e+00 1.763330000000000064e+00 1.745130000000000070e+00 1.711999999999999980e-02 1.765430000000000055e+00 1.811520000000000019e+00 1.779600000000000071e+00 3.525250000000000217e+00
3.418540000000000134e+00 4.830000000000000092e-03 4.729999999999999830e-03 7.828999999999999848e-02 1.756909999999999972e+00 1.766899999999999915e+00 1.745759999999999978e+00 1.694000000000000020e-02 1.762100000000000000e+00 1.812380000000000102e+00 1.782329999999999970e+00 3.525879999999999903e+00
3.416760000000000019e+00 3.729999999999999809e-03 3.870000000000000176e-03 7.858999999999999320e-02 1.755460000000000020e+00 1.770459999999999923e+00 1.746380000000000043e+00 1.676000000000000059e-02 1.758769999999999945e+00 1.813239999999999963e+00 1.785069999999999935e+00 3.526499999999999968e+00
3.414989999999999970e+00 2.619999999999999933e-03 3.010000000000000089e-03 7.888000000000000567e-02 1.754010000000000069e+00 1.774029999999999996e+00 1.747009999999999952e+00 1.659000000000000058e-02 1.755439999999999889e+00 1.814100000000000046e+00 1.787800000000000056e+00 3.527130000000000098e+00
3.413209999999999855e+00 1.510000000000000057e-03 2.150000000000000001e-03 7.917000000000000426e-02 1.752559999999999896e+00 1.777590000000000003e+00 1.747630000000000017e+00 1.641000000000000097e-02 1.752110000000000056e+00 1.758499999999999952e+00 1.759660000000000002e+00 6.999999999999999387e-05
3.535620000000000207e+00 3.467620000000000147e+00 3.485990000000000144e+00 3.499999999999999964e-04 1.734169999999999989e+00 1.749549999999999939e+00 1.776219999999999910e+00 -5.939999999999999968e-03 1.745200000000000085e+00 1.777500000000000080e+00 1.724960000000000049e+00 3.486569999999999947e+00
1.499999999999999869e-04 3.467109999999999914e+00 3.482749999999999790e+00 3.534850000000000048e+00 1.735400000000000054e+00 1.748080000000000078e+00 1.776180000000000092e+00 -7.550000000000000287e-03 1.747290000000000010e+00 1.760529999999999928e+00 1.744599999999999929e+00 2.360000000000000119e-03
1.860000000000000108e-03 3.466590000000000060e+00 3.479509999999999881e+00 3.532169999999999810e+00 1.736629999999999896e+00 1.746609999999999996e+00 1.776149999999999896e+00 -9.159999999999999740e-03 1.749379999999999935e+00 1.761530000000000040e+00 1.745479999999999920e+00 4.980000000000000052e-03
3.579999999999999849e-03 3.466079999999999828e+00 3.476269999999999971e+00 3.529490000000000016e+00 1.737870000000000026e+00 1.745139999999999914e+00 1.758180000000000076e+00 3.476199999999999957e+00 1.751470000000000082e+00 1.762529999999999930e+00 1.746369999999999978e+00 7.609999999999999577e-03
5.290000000000000431e-03 3.465559999999999974e+00 3.473040000000000127e+00 3.526809999999999778e+00 1.739100000000000090e+00 1.743670000000000053e+00 1.758150000000000102e+00 3.474600000000000133e+00 1.753549999999999942e+00 1.763530000000000042e+00 1.747260000000000035e+00 1.022999999999999951e-02
3.532239999999999824e+00 3.419620000000000104e+00 8.030000000000000679e-03 3.017999999999999849e-02 1.662600000000000078e+00 1.681240000000000068e+00 1.796380000000000088e+00 3.373139999999999805e+00 1.681359999999999966e+00 1.725340000000000096e+00 1.614020000000000010e+00 3.360640000000000072e+00
1.007200000000000040e-01 3.418239999999999945e+00 9.390000000000000777e-03 3.462930000000000064e+00 1.664430000000000076e+00 1.679240000000000066e+00 1.798570000000000002e+00 3.371049999999999880e+00 1.680849999999999955e+00 1.721919999999999895e+00 1.615660000000000096e+00 3.361779999999999990e+00
1.026100000000000068e-01 3.416859999999999786e+00 1.073999999999999955e-02 3.462260000000000115e+00 1.666250000000000009e+00 1.677249999999999908e+00 1.800769999999999982e+00 3.368970000000000020e+00 1.680350000000000010e+00 1.757749999999999924e+00 1.712409999999999988e+00 2.400000000000000061e-04
1.044999999999999957e-01 3.415490000000000137e+00 1.209999999999999964e-02 3.461599999999999788e+00 1.668080000000000007e+00 1.675249999999999906e+00 1.802959999999999896e+00 3.366880000000000095e+00 1.679840000000000000e+00 1.754329999999999945e+00 1.714050000000000074e+00 1.379999999999999933e-03
1.063800000000000023e-01 3.414120000000000044e+00 1.345000000000000015e-02 3.460929999999999840e+00 1.669899999999999940e+00 1.673259999999999970e+00 1.805150000000000032e+00 3.364799999999999791e+00 1.679340000000000055e+00 1.750930000000000097e+00 1.715680000000000094e+00 2.530000000000000131e-03
5.965999999999999776e-02 3.516119999999999912e+00 1.280000000000000105e-03 3.726000000000000145e-02 1.757489999999999997e+00 1.690110000000000001e+00 1.805420000000000025e+00 3.516989999999999839e+00 1.689070000000000071e+00 1.787930000000000019e+00 1.755419999999999980e+00 3.376020000000000021e+00
6.097000000000000336e-02 3.516529999999999934e+00 1.379999999999999933e-03 3.742999999999999799e-02 1.757929999999999993e+00 1.685300000000000020e+00 1.746040000000000036e+00 4.099999999999999912e-04 1.691619999999999902e+00 1.772049999999999903e+00 1.754329999999999945e+00 3.699999999999999947e-04
6.226999999999999896e-02 3.516929999999999890e+00 1.479999999999999979e-03 3.758999999999999841e-02 1.758380000000000054e+00 1.680490000000000039e+00 1.745430000000000037e+00 1.059999999999999961e-03 1.694160000000000110e+00 1.771190000000000042e+00 1.752830000000000110e+00 2.540000000000000157e-03
4.810000000000000039e-03 1.100000000000000039e-04 1.580000000000000024e-03 3.776000000000000190e-02 1.758820000000000050e+00 1.675689999999999902e+00 1.744830000000000103e+00 1.709999999999999932e-03 1.696700000000000097e+00 1.770329999999999959e+00 1.751330000000000053e+00 4.700000000000000185e-03
6.109999999999999980e-03 5.100000000000000366e-04 1.680000000000000070e-03 3.792999999999999844e-02 1.759269999999999889e+00 1.670879999999999921e+00 1.744220000000000104e+00 2.350000000000000092e-03 1.699240000000000084e+00 1.769460000000000033e+00 1.749829999999999997e+00 6.859999999999999779e-03
3.489209999999999923e+00 3.170000000000000075e-03 2.749999999999999840e-03 7.492000000000000048e-02 1.656679999999999930e+00 1.745829999999999993e+00 1.776520000000000099e+00 -5.228000000000000008e-02 1.749489999999999990e+00 1.850710000000000077e+00 1.603669999999999929e+00 3.493570000000000064e+00
8.400000000000000348e-04 5.590000000000000351e-03 3.299999999999999982e-03 3.561189999999999856e+00 1.656700000000000061e+00 1.744690000000000074e+00 1.854149999999999965e+00 3.367980000000000196e+00 1.747779999999999889e+00 1.853320000000000078e+00 1.603639999999999954e+00 3.495859999999999967e+00
1.959999999999999937e-03 8.019999999999999352e-03 3.860000000000000150e-03 3.557970000000000077e+00 1.656730000000000036e+00 1.743559999999999999e+00 1.853639999999999954e+00 3.365569999999999951e+00 1.746070000000000011e+00 1.855939999999999923e+00 1.603599999999999914e+00 3.498149999999999871e+00
3.069999999999999812e-03 1.043999999999999963e-02 4.409999999999999858e-03 3.554749999999999854e+00 1.656760000000000010e+00 1.742420000000000080e+00 1.853120000000000100e+00 3.363160000000000149e+00 1.744359999999999911e+00 1.791530000000000067e+00 1.708199999999999941e+00 2.230000000000000211e-03
4.190000000000000148e-03 1.285000000000000031e-02 4.959999999999999999e-03 3.551530000000000076e+00 1.656789999999999985e+00 1.741290000000000004e+00 1.852610000000000090e+00 3.360749999999999904e+00 1.742650000000000032e+00 1.794149999999999912e+00 1.708159999999999901e+00 4.519999999999999712e-03
3.447140000000000093e+00 3.779999999999999940e-03 3.459999999999999968e-03 3.434239999999999959e+00 1.753509999999999902e+00 1.770240000000000036e+00 1.684399999999999897e+00 4.938000000000000028e-02 1.773160000000000069e+00 1.754490000000000105e+00 1.705000000000000071e+00 8.599999999999999789e-04
3.449570000000000025e+00 2.060000000000000199e-03 3.789999999999999966e-03 3.429780000000000051e+00 1.752439999999999998e+00 1.768920000000000048e+00 1.685200000000000031e+00 5.027999999999999831e-02 1.772799999999999931e+00 1.755719999999999947e+00 1.706890000000000018e+00 2.210000000000000159e-03
1.600000000000000077e-03 3.400000000000000244e-04 4.120000000000000398e-03 3.425320000000000142e+00 1.751370000000000093e+00 1.767600000000000060e+00 1.685999999999999943e+00 5.118999999999999939e-02 1.772440000000000015e+00 1.756950000000000012e+00 1.708769999999999900e+00 3.559999999999999797e-03
5.729999999999999677e-02 3.406289999999999818e+00 4.460000000000000422e-03 3.420869999999999855e+00 1.750299999999999967e+00 1.766280000000000072e+00 1.686800000000000077e+00 5.208999999999999742e-02 1.772080000000000100e+00 1.758170000000000011e+00 1.710660000000000069e+00 4.910000000000000302e-03