-3.197265897999999851e+01
-3.197242817000000059e+01
-3.197173528000000076e+01
-3.197058016000000080e+01
-3.196896190000000004e+01
-3.211491814000000034e+01
-3.211449676000000153e+01
-3.211358555000000337e+01
-3.211218816000000231e+01
-3.211030715999999785e+01
-3.201404675999999938e+01
-3.201366740999999649e+01
-3.201281677000000059e+01
-3.201149371999999715e+01
-3.200969690000000156e+01
-3.219234349999999978e+01
-3.219216972000000254e+01
-3.219167591000000073e+01
-3.219086114000000265e+01
-3.218972489000000081e+01
-3.222323844000000292e+01
-3.222317335999999699e+01
-3.222282221999999763e+01
-3.222218483000000333e+01
-3.222126045000000261e+01
-3.203651827000000196e+01
-3.203613957999999684e+01
-3.203531733999999886e+01
-3.203405122000000205e+01
-3.203234037000000001e+01
-3.162779079999999965e+01
-3.162767789000000107e+01
-3.162685211999999879e+01
-3.162531767999999843e+01
-3.162307905000000119e+01
-3.178362986000000134e+01
-3.178338344999999876e+01
-3.178268959000000038e+01
-3.178154952999999949e+01
-3.177996355000000150e+01
-3.176844592999999861e+01
-3.176797402000000048e+01
-3.176707156000000154e+01
-3.176573365000000138e+01
-3.176395739999999890e+01
-3.161855488999999864e+01
-3.161837274999999892e+01
-3.161759435000000096e+01
-3.161621956000000111e+01
-3.161424831000000069e+01
-3.230380425999999972e+01
-3.230365568999999937e+01
-3.230320868999999817e+01
-3.230246543999999886e+01
-3.230142387000000070e+01
-3.221031915999999740e+01
-3.221033800000000014e+01
-3.221012750999999952e+01
-3.220968579000000176e+01
-3.220901281999999810e+01
-3.223608274000000051e+01
-3.223593223000000307e+01
-3.223560510000000079e+01
-3.223509925999999837e+01
-3.223441255000000183e+01
-3.226520366999999823e+01
-3.226516807000000142e+01
-3.226490565000000288e+01
-3.226441691000000134e+01
-3.226370056999999747e+01
-3.222366505000000103e+01
-3.222351523999999756e+01
-3.222317779000000115e+01
-3.222265078000000216e+01
-3.222193355999999653e+01
-3.221019137999999771e+01
-3.221014114999999833e+01
-3.220990222999999730e+01
-3.220947343999999646e+01
-3.220885355000000061e+01
-3.218954733000000346e+01
-3.218927817000000147e+01
-3.218859402999999730e+01
-3.218749508999999875e+01
-3.218597963999999934e+01
-3.226563138000000208e+01
-3.226555257999999782e+01
-3.226521002999999865e+01
-3.226460259000000264e+01
-3.226372956000000158e+01
-3.222488952999999867e+01
-3.222479348000000243e+01
-3.222444784000000340e+01
-3.222385117000000321e+01
-3.222300165000000050e+01
-3.222156325000000265e+01
-3.222144735999999909e+01
-3.222106930000000347e+01
-3.222042737999999673e+01
-3.221952026999999674e+01
-3.203955596000000128e+01
-3.203948155999999869e+01
-3.203926704999999941e+01
-3.203890781999999859e+01
-3.203840213000000148e+01
-3.192001687000000132e+01
-3.191990726999999950e+01
-3.191967149999999975e+01
-3.191930479999999903e+01
-3.191880623000000128e+01
-3.171206379999999925e+01
-3.171200766999999843e+01
-3.171191630999999944e+01
-3.171178623000000130e+01
-3.171161582999999951e+01
-3.190779386000000173e+01
-3.190780060000000162e+01
-3.190772465999999952e+01
-3.190755933999999883e+01
-3.190730285000000066e+01
-3.210580343000000170e+01
-3.210570407000000159e+01
-3.210540482999999767e+01
-3.210490311000000219e+01
-3.210419711000000120e+01
-3.165830958999999822e+01
-3.165829932999999841e+01
-3.165828971999999908e+01
-3.165827774999999988e+01
-3.165826007000000075e+01
-3.196171336999999824e+01
-3.196182471999999919e+01
-3.196176455999999888e+01
-3.196159460000000152e+01
-3.196131351000000009e+01
-3.215778290000000084e+01
-3.215769055999999892e+01
-3.215736763999999681e+01
-3.215681350999999921e+01
-3.215602734000000140e+01
-3.167730367000000058e+01
-3.167720973000000129e+01
-3.167706988999999851e+01
-3.167687919000000107e+01
-3.167663638999999876e+01
-3.193618560000000173e+01
-3.193614442000000153e+01
-3.193600062000000150e+01
-3.193575059000000138e+01
-3.193539320000000004e+01
