-1.500000000000000038e-05 -9.999999999999999547e-07 1.399999999999999979e-05 -9.999999999999999547e-07 -6.000000000000000152e-06 -1.800000000000000046e-05 6.000000000000000152e-06 -1.000000000000000082e-05 -3.100000000000000135e-05 1.000000000000000082e-05 1.699999999999999987e-05 3.600000000000000091e-05
8.961000000000000215e-03 1.743300000000000058e-02 1.275800000000000024e-02 1.068200000000000052e-02 -1.216500000000000047e-02 7.550000000000000287e-03 -3.054999999999999990e-03 -1.990799999999999861e-02 -5.335800000000000265e-02 -1.658000000000000099e-02 1.467300000000000028e-02 3.311299999999999660e-02
1.768399999999999833e-02 3.411700000000000149e-02 2.548399999999999971e-02 2.111999999999999988e-02 -2.382499999999999896e-02 1.438799999999999975e-02 -6.114999999999999776e-03 -3.942899999999999877e-02 -1.055380000000000068e-01 -3.268200000000000272e-02 2.914200000000000124e-02 6.562600000000000378e-02
2.643399999999999916e-02 5.099999999999999672e-02 3.813300000000000023e-02 3.155700000000000172e-02 -3.557699999999999751e-02 2.155200000000000171e-02 -9.140999999999999820e-03 -5.922700000000000187e-02 -1.581430000000000058e-01 -4.884899999999999659e-02 4.379299999999999859e-02 9.831700000000000161e-02
3.536000000000000254e-02 6.810800000000000187e-02 5.082400000000000112e-02 4.214199999999999890e-02 -4.745699999999999918e-02 2.905599999999999850e-02 -1.214600000000000055e-02 -7.950400000000000522e-02 -2.116149999999999975e-01 -6.538499999999999868e-02 5.885499999999999760e-02 1.315330000000000110e-01
-3.203500000000000097e-02 -2.258900000000000144e-02 -6.873600000000000543e-02 3.712700000000000028e-02 1.031199999999999999e-02 3.140400000000000136e-02 1.413099999999999946e-02 1.523900000000000081e-02 3.105000000000000121e-03 -1.906000000000000055e-02 -2.746000000000000177e-03 3.420499999999999929e-02
-3.444200000000000039e-02 -4.243600000000000150e-02 -8.636699999999999933e-02 3.377399999999999847e-02 4.303499999999999687e-02 4.292200000000000182e-02 2.157099999999999990e-02 -3.418999999999999817e-02 -3.703000000000000128e-03 -2.075000000000000108e-02 3.378099999999999853e-02 4.712500000000000022e-02
-3.689400000000000318e-02 -6.390500000000000347e-02 -1.038440000000000057e-01 3.032200000000000173e-02 7.700100000000000000e-02 5.455600000000000033e-02 2.897999999999999882e-02 -8.429799999999999793e-02 -1.039400000000000046e-02 -2.223800000000000082e-02 7.132499999999999951e-02 5.967900000000000288e-02
-3.933299999999999991e-02 -8.410199999999999620e-02 -1.214060000000000000e-01 2.689400000000000124e-02 1.098599999999999993e-01 6.620900000000000396e-02 3.643899999999999917e-02 -1.334329999999999961e-01 -1.737999999999999962e-02 -2.383300000000000002e-02 1.077380000000000004e-01 7.256600000000000550e-02
-4.180199999999999888e-02 -1.041509999999999936e-01 -1.393030000000000102e-01 2.336299999999999835e-02 1.428740000000000010e-01 7.807000000000000051e-02 4.408700000000000119e-02 -1.830400000000000083e-01 -2.458600000000000022e-02 -2.549699999999999883e-02 1.443069999999999908e-01 8.579599999999999727e-02
-1.479300000000000059e-02 -1.422499999999999980e-02 9.161000000000000740e-03 3.503300000000000164e-02 8.340000000000000191e-03 4.125199999999999700e-02 -9.867000000000000770e-03 9.344999999999999141e-03 -2.318299999999999875e-02 -1.033500000000000044e-02 -3.579999999999999849e-03 -2.749800000000000161e-02
-4.340100000000000208e-02 -2.605899999999999883e-02 3.389199999999999852e-02 1.872899999999999912e-02 5.392000000000000091e-03 5.214699999999999891e-02 1.492600000000000003e-02 3.517300000000000287e-02 -7.025900000000000201e-02 9.790000000000000091e-03 -1.467399999999999954e-02 -1.594100000000000031e-02
-7.119000000000000328e-02 -3.778100000000000208e-02 5.821300000000000086e-02 3.194999999999999923e-03 2.367000000000000180e-03 6.310499999999999443e-02 3.917600000000000249e-02 6.061500000000000221e-02 -1.164219999999999977e-01 2.885700000000000071e-02 -2.530400000000000010e-02 -5.138000000000000206e-03
-9.950299999999999423e-02 -4.949800000000000033e-02 8.298099999999999921e-02 -1.270199999999999975e-02 -7.649999999999999465e-04 7.391799999999999760e-02 6.378799999999999748e-02 8.631800000000000583e-02 -1.631130000000000080e-01 4.840699999999999864e-02 -3.615999999999999770e-02 6.002999999999999656e-03
-1.279460000000000042e-01 -6.159300000000000191e-02 1.079169999999999990e-01 -2.852400000000000074e-02 -3.882000000000000034e-03 8.517900000000000471e-02 8.852799999999999558e-02 1.126039999999999958e-01 -2.105239999999999889e-01 6.792499999999999927e-02 -4.720300000000000190e-02 1.719100000000000142e-02
-1.135000000000000071e-02 5.119999999999999768e-04 -4.788999999999999854e-03 -3.624000000000000138e-02 -3.949400000000000133e-02 5.592300000000000049e-02 1.579600000000000101e-02 3.008999999999999956e-03 7.372000000000000081e-03 3.180199999999999694e-02 3.591400000000000148e-02 -5.854499999999999982e-02
-3.046700000000000103e-02 1.299999999999999886e-04 -1.690099999999999936e-02 -1.554799999999999932e-02 -6.740899999999999670e-02 6.413099999999999357e-02 3.169299999999999895e-02 2.524200000000000055e-02 2.691999999999999948e-03 1.428600000000000009e-02 4.194699999999999818e-02 -4.997399999999999759e-02
-4.812899999999999817e-02 -6.139999999999999625e-04 -2.809999999999999998e-02 2.719000000000000063e-03 -9.227299999999999391e-02 7.182700000000000196e-02 4.669399999999999940e-02 4.472199999999999787e-02 -1.773000000000000053e-03 -1.255999999999999955e-03 4.803199999999999831e-02 -4.197499999999999842e-02
-6.659900000000000542e-02 -1.139000000000000038e-03 -3.986399999999999666e-02 2.228099999999999872e-02 -1.188609999999999944e-01 7.989799999999999680e-02 6.221800000000000247e-02 6.578199999999999326e-02 -6.267000000000000001e-03 -1.789500000000000118e-02 5.415799999999999781e-02 -3.376500000000000334e-02
-8.518699999999999883e-02 -1.724000000000000055e-03 -5.161000000000000310e-02 4.204399999999999804e-02 -1.455510000000000137e-01 8.800800000000000289e-02 7.775200000000000167e-02 8.686299999999999577e-02 -1.081799999999999949e-02 -3.461499999999999994e-02 6.032300000000000162e-02 -2.554199999999999873e-02
-3.990599999999999703e-02 -1.684400000000000133e-02 4.148999999999999910e-02 1.119099999999999956e-02 3.513199999999999656e-02 -1.845700000000000118e-02 1.415800000000000045e-02 -1.258300000000000043e-02 -1.270899999999999981e-02 1.466600000000000022e-02 -5.738000000000000045e-03 -1.051099999999999951e-02
-2.276500000000000051e-02 -4.309099999999999736e-02 3.938500000000000334e-02 1.190699999999999918e-02 3.912100000000000299e-02 -8.401000000000000481e-03 4.096999999999999947e-03 5.943000000000000366e-03 -3.552199999999999802e-02 6.872999999999999769e-03 -1.946000000000000030e-03 4.381999999999999611e-03
-6.581000000000000044e-03 -6.766099999999999892e-02 3.735900000000000332e-02 1.234999999999999987e-02 4.248199999999999893e-02 1.057999999999999913e-03 -5.191000000000000301e-03 2.385100000000000067e-02 -5.707600000000000173e-02 -4.569999999999999952e-04 1.332999999999999984e-03 1.849299999999999902e-02
9.929999999999999591e-03 -9.278699999999999448e-02 3.529399999999999898e-02 1.286299999999999943e-02 4.605499999999999872e-02 1.079699999999999931e-02 -1.471699999999999918e-02 4.197200000000000236e-02 -7.904300000000000215e-02 -7.969000000000000389e-03 4.787999999999999722e-03 3.278799999999999770e-02
2.689799999999999830e-02 -1.185159999999999964e-01 3.317799999999999916e-02 1.349500000000000005e-02 4.989799999999999791e-02 2.078199999999999839e-02 -2.460199999999999887e-02 6.010499999999999871e-02 -1.014260000000000023e-01 -1.566700000000000037e-02 8.562999999999999431e-03 4.735000000000000320e-02
-3.731600000000000195e-02 -3.500500000000000139e-02 -1.950700000000000003e-02 1.464900000000000056e-02 2.790000000000000119e-02 -5.700299999999999812e-02 2.521599999999999883e-02 -5.421800000000000230e-02 5.253499999999999837e-02 -2.615000000000000137e-03 6.126399999999999901e-02 2.386399999999999980e-02
-5.998200000000000059e-02 -4.496300000000000296e-02 -2.154100000000000112e-02 5.587600000000000205e-02 2.645300000000000082e-02 -2.678200000000000025e-02 2.537500000000000172e-02 -7.220899999999999541e-02 5.484200000000000186e-02 -2.122900000000000134e-02 9.064300000000000135e-02 -6.472000000000000322e-03
-8.231600000000000028e-02 -5.356500000000000150e-02 -2.344699999999999909e-02 9.535000000000000420e-02 2.419800000000000076e-02 2.112999999999999861e-03 2.602199999999999999e-02 -8.914400000000000102e-02 5.702900000000000330e-02 -3.909699999999999981e-02 1.185080000000000022e-01 -3.578900000000000137e-02
-1.045729999999999993e-01 -6.286600000000000521e-02 -2.569799999999999862e-02 1.355989999999999973e-01 2.248500000000000151e-02 3.157000000000000084e-02 2.635300000000000142e-02 -1.067079999999999973e-01 5.958399999999999808e-02 -5.739899999999999863e-02 1.470990000000000075e-01 -6.553599999999999703e-02
-1.275880000000000070e-01 -7.174700000000000522e-02 -2.760800000000000060e-02 1.764930000000000110e-01 2.013699999999999865e-02 6.126700000000000201e-02 2.704200000000000007e-02 -1.240529999999999966e-01 6.171000000000000096e-02 -7.592899999999999650e-02 1.757090000000000041e-01 -9.541900000000000381e-02
4.330500000000000321e-02 7.116100000000000203e-02 -7.394299999999999484e-02 -9.343999999999999875e-03 -1.917999999999999913e-02 3.392599999999999782e-02 1.291699999999999966e-02 2.897299999999999875e-02 7.839999999999999747e-04 -4.688200000000000006e-02 -8.104699999999999405e-02 3.929699999999999860e-02
-1.048600000000000053e-02 5.723199999999999815e-02 -8.435800000000000243e-02 -3.960000000000000325e-02 -3.126199999999999812e-02 6.076399999999999857e-02 7.345300000000000440e-02 4.442499999999999921e-02 3.414999999999999980e-02 -2.336500000000000035e-02 -7.048200000000000298e-02 -1.053800000000000049e-02
-6.545800000000000229e-02 4.338100000000000289e-02 -9.562900000000000567e-02 -7.143299999999999650e-02 -4.323599999999999666e-02 8.816400000000000625e-02 1.350929999999999909e-01 5.974600000000000050e-02 6.798600000000000476e-02 1.863000000000000073e-03 -5.997299999999999853e-02 -6.046200000000000185e-02
-1.193560000000000038e-01 2.957900000000000112e-02 -1.063759999999999983e-01 -1.022480000000000055e-01 -5.522599999999999731e-02 1.148359999999999936e-01 1.957619999999999916e-01 7.503100000000000047e-02 1.012919999999999932e-01 2.596199999999999897e-02 -4.946199999999999902e-02 -1.096929999999999988e-01
-1.736379999999999868e-01 1.572899999999999993e-02 -1.169530000000000014e-01 -1.332919999999999938e-01 -6.730500000000000371e-02 1.414199999999999902e-01 2.569690000000000030e-01 9.041899999999999937e-02 1.347190000000000054e-01 5.012500000000000289e-02 -3.892999999999999933e-02 -1.591899999999999982e-01
3.918399999999999661e-02 -7.690999999999999920e-03 -1.277200000000000037e-02 2.070500000000000118e-02 2.923900000000000110e-02 -2.869000000000000022e-03 -6.739100000000000645e-02 -5.054600000000000065e-02 -1.315000000000000023e-02 7.779999999999999589e-03 2.894800000000000151e-02 2.853400000000000034e-02
5.330399999999999722e-02 -5.479000000000000363e-03 -1.098599999999999924e-02 5.509300000000000308e-02 3.360999999999999838e-03 1.467700000000000081e-02 -6.910099999999999576e-02 -5.643800000000000205e-02 -1.455000000000000043e-02 -3.901000000000000301e-02 5.849399999999999739e-02 1.059799999999999978e-02
6.640100000000000169e-02 -3.367000000000000201e-03 -9.166000000000000536e-03 8.862100000000000533e-02 -2.178300000000000028e-02 3.191499999999999893e-02 -7.048300000000000398e-02 -6.206600000000000311e-02 -1.598899999999999974e-02 -8.427500000000000269e-02 8.716300000000000436e-02 -7.027000000000000260e-03
7.970599999999999907e-02 -1.224000000000000045e-03 -7.437000000000000034e-03 1.222899999999999959e-01 -4.706400000000000167e-02 4.929200000000000248e-02 -7.189700000000000257e-02 -6.782900000000000040e-02 -1.731500000000000053e-02 -1.298400000000000110e-01 1.160449999999999954e-01 -2.479200000000000154e-02
9.271400000000000474e-02 9.890000000000000787e-04 -5.599999999999999943e-03 1.558879999999999988e-01 -7.303700000000000470e-02 6.688199999999999701e-02 -7.267800000000000649e-02 -7.373599999999999599e-02 -1.867600000000000163e-02 -1.757640000000000036e-01 1.457269999999999954e-01 -4.285300000000000220e-02
-4.006599999999999745e-02 3.512900000000000050e-02 4.862299999999999955e-02 -6.272300000000000098e-02 -6.563000000000000257e-03 2.906600000000000156e-02 8.105300000000000005e-02 1.196999999999999974e-02 -8.341099999999999903e-02 2.195599999999999982e-02 -4.053999999999999965e-02 5.734999999999999647e-03
-5.776900000000000091e-02 6.383500000000000285e-02 9.079299999999999871e-02 -5.819200000000000067e-02 -3.082500000000000170e-02 -8.921000000000000110e-03 8.797000000000000652e-02 2.144199999999999925e-02 -9.621300000000000685e-02 2.820599999999999843e-02 -5.447300000000000059e-02 1.436899999999999983e-02
-7.490800000000000236e-02 9.193800000000000583e-02 1.320909999999999862e-01 -5.341900000000000120e-02 -5.463599999999999707e-02 -4.609800000000000009e-02 9.453300000000000591e-02 3.062000000000000138e-02 -1.086359999999999965e-01 3.401300000000000157e-02 -6.791600000000000414e-02 2.270499999999999949e-02
-9.221999999999999642e-02 1.207769999999999955e-01 1.742460000000000120e-01 -4.887600000000000278e-02 -7.907799999999999552e-02 -8.404799999999999771e-02 1.013570000000000026e-01 3.996700000000000252e-02 -1.214120000000000060e-01 4.000100000000000183e-02 -8.165799999999999448e-02 3.129699999999999843e-02
-1.097169999999999951e-01 1.500440000000000107e-01 2.168730000000000102e-01 -4.420999999999999930e-02 -1.038840000000000041e-01 -1.223980000000000068e-01 1.081639999999999963e-01 4.887500000000000178e-02 -1.335830000000000073e-01 4.602099999999999941e-02 -9.501199999999999923e-02 3.925599999999999923e-02
-5.001300000000000190e-02 1.605300000000000130e-02 5.362999999999999712e-03 -8.797299999999999565e-02 -7.781999999999999855e-03 3.302999999999999686e-02 6.966200000000000170e-02 -1.324700000000000009e-02 9.112999999999999573e-03 6.817099999999999549e-02 5.034000000000000280e-03 -4.762799999999999673e-02
-8.347300000000000553e-02 4.576299999999999812e-02 -2.800199999999999911e-02 -3.806899999999999867e-02 -5.830300000000000066e-02 6.449000000000000565e-02 6.419999999999999318e-02 8.260999999999999246e-03 2.177799999999999875e-02 5.723799999999999721e-02 4.287000000000000012e-03 -5.836600000000000121e-02
-1.164369999999999988e-01 7.414999999999999369e-02 -5.976100000000000162e-02 1.048400000000000026e-02 -1.065720000000000001e-01 9.447800000000000642e-02 5.911299999999999888e-02 2.805399999999999908e-02 3.329200000000000215e-02 4.671899999999999664e-02 4.435999999999999839e-03 -6.812999999999999612e-02
-1.493410000000000015e-01 1.033229999999999982e-01 -9.231999999999999929e-02 5.952500000000000152e-02 -1.558039999999999980e-01 1.252119999999999900e-01 5.384200000000000097e-02 4.856599999999999806e-02 4.542999999999999816e-02 3.588700000000000223e-02 4.048000000000000383e-03 -7.847999999999999421e-02
-1.830690000000000095e-01 1.325840000000000074e-01 -1.250699999999999867e-01 1.094719999999999999e-01 -2.055440000000000045e-01 1.561029999999999918e-01 4.865599999999999786e-02 6.877199999999999980e-02 5.721500000000000197e-02 2.490099999999999952e-02 4.385000000000000009e-03 -8.840299999999999547e-02
-1.999999999999999909e-06 1.200000000000000030e-05 -3.999999999999999819e-06 6.999999999999999895e-06 0.000000000000000000e+00 -1.999999999999999909e-06 -5.000000000000000409e-06 -1.900000000000000105e-05 1.999999999999999909e-06 -9.999999999999999547e-07 6.000000000000000152e-06 6.000000000000000152e-06
-5.963000000000000418e-03 1.416300000000000024e-02 -9.660000000000000184e-03 -1.887700000000000142e-02 -1.778400000000000120e-02 1.678699999999999984e-02 9.320999999999999425e-03 1.695699999999999985e-02 -6.904999999999999680e-03 1.554799999999999932e-02 -1.331799999999999998e-02 -2.579999999999999828e-04
-1.291600000000000040e-02 2.941200000000000064e-02 -1.950400000000000050e-02 -3.840999999999999970e-02 -3.657099999999999934e-02 3.362799999999999817e-02 1.961500000000000049e-02 3.489600000000000340e-02 -1.325499999999999942e-02 3.175000000000000044e-02 -2.768400000000000027e-02 -9.009999999999999997e-04
-1.916500000000000148e-02 4.376800000000000135e-02 -2.919800000000000173e-02 -5.734199999999999714e-02 -5.453299999999999814e-02 5.033900000000000180e-02 2.923699999999999910e-02 5.194300000000000306e-02 -1.990099999999999855e-02 4.731699999999999795e-02 -4.110199999999999965e-02 -1.291999999999999963e-03
-2.573699999999999946e-02 5.868500000000000105e-02 -3.928999999999999854e-02 -7.697900000000000575e-02 -7.317999999999999505e-02 6.766700000000000492e-02 3.934300000000000297e-02 6.961699999999999833e-02 -2.656700000000000034e-02 6.346200000000000452e-02 -5.499600000000000322e-02 -1.889000000000000054e-03
1.170400000000000086e-02 1.879600000000000021e-02 -8.174000000000000710e-03 -7.354000000000000294e-03 -1.415499999999999918e-02 7.891999999999999710e-03 -8.654000000000000234e-03 -1.698500000000000010e-02 -2.000000000000000096e-04 4.309999999999999595e-03 1.238399999999999918e-02 3.770000000000000022e-04
2.365899999999999948e-02 -1.152000000000000029e-03 1.273200000000000026e-02 -4.490000000000000176e-04 -9.853000000000000647e-03 9.483999999999999375e-03 -1.638900000000000079e-02 -5.919999999999999698e-04 -7.084000000000000019e-03 -6.805000000000000285e-03 1.158200000000000028e-02 -1.523599999999999954e-02
3.503499999999999670e-02 -2.008300000000000016e-02 3.239299999999999818e-02 6.440999999999999677e-03 -5.680000000000000153e-03 1.077499999999999986e-02 -2.397900000000000031e-02 1.435099999999999917e-02 -1.396799999999999951e-02 -1.748399999999999954e-02 1.143899999999999952e-02 -2.929599999999999912e-02
4.660899999999999765e-02 -3.917699999999999655e-02 5.229099999999999721e-02 1.342899999999999996e-02 -1.541000000000000052e-03 1.224800000000000021e-02 -3.167699999999999683e-02 2.965800000000000033e-02 -2.085300000000000001e-02 -2.835999999999999979e-02 1.108999999999999916e-02 -4.374200000000000310e-02
5.833800000000000097e-02 -5.870999999999999830e-02 7.270200000000000273e-02 2.033700000000000091e-02 2.631999999999999791e-03 1.379499999999999997e-02 -3.936499999999999722e-02 4.552799999999999903e-02 -2.775199999999999889e-02 -3.928899999999999754e-02 1.052799999999999916e-02 -5.880200000000000010e-02
-2.381600000000000036e-02 3.670199999999999851e-02 -5.761999999999999761e-03 3.667700000000000127e-02 -4.901900000000000007e-02 2.357199999999999920e-02 -2.108499999999999958e-02 3.916000000000000210e-03 -8.750000000000000182e-04 8.370999999999999969e-03 8.356999999999999845e-03 -1.686700000000000005e-02
-1.508600000000000045e-02 4.823800000000000310e-02 -2.162599999999999939e-02 3.233599999999999669e-02 -5.297700000000000325e-02 3.602799999999999753e-02 -3.428699999999999803e-02 1.998000000000000210e-03 1.589999999999999888e-04 1.717899999999999983e-02 2.680999999999999790e-03 -1.446899999999999922e-02
-6.884999999999999627e-03 5.937100000000000016e-02 -3.676100000000000201e-02 2.810999999999999957e-02 -5.709600000000000092e-02 4.791499999999999926e-02 -4.678199999999999720e-02 1.710000000000000094e-04 1.139000000000000038e-03 2.571899999999999881e-02 -2.484000000000000097e-03 -1.224100000000000014e-02
1.513999999999999938e-03 7.075399999999999745e-02 -5.207900000000000029e-02 2.377699999999999952e-02 -6.128800000000000220e-02 5.992399999999999810e-02 -5.949000000000000121e-02 -1.737999999999999962e-03 2.053000000000000137e-03 3.439400000000000096e-02 -7.752000000000000210e-03 -9.839999999999999789e-03
1.053800000000000049e-02 8.246699999999999864e-02 -6.811399999999999400e-02 1.944099999999999995e-02 -6.553000000000000491e-02 7.235800000000000565e-02 -7.278700000000000447e-02 -3.670000000000000085e-03 3.387999999999999953e-03 4.303499999999999687e-02 -1.327899999999999914e-02 -7.556000000000000216e-03
-1.221999999999999996e-03 -2.143499999999999919e-02 5.629999999999999588e-03 -1.360600000000000004e-02 -1.495999999999999934e-02 -4.018399999999999750e-02 3.847999999999999858e-03 4.115400000000000308e-02 3.761099999999999860e-02 1.066600000000000013e-02 -5.141999999999999869e-03 -3.111000000000000050e-03
-2.558099999999999957e-02 -1.653400000000000009e-02 1.210100000000000064e-02 -6.673000000000000112e-03 -8.430999999999999259e-03 -4.046000000000000291e-02 6.960000000000000041e-04 2.855399999999999952e-02 3.787200000000000288e-02 3.127300000000000219e-02 -3.968000000000000173e-03 -9.561000000000000054e-03
-4.892699999999999827e-02 -1.183799999999999956e-02 1.865599999999999897e-02 4.960000000000000216e-04 -2.213999999999999822e-03 -4.091700000000000198e-02 -2.915000000000000056e-03 1.671399999999999969e-02 3.791599999999999832e-02 5.110699999999999965e-02 -3.060999999999999919e-03 -1.572799999999999893e-02
-7.282399999999999984e-02 -7.113999999999999664e-03 2.513299999999999909e-02 7.511000000000000315e-03 4.119000000000000265e-03 -4.134899999999999687e-02 -6.300000000000000044e-03 4.667000000000000141e-03 3.818300000000000166e-02 7.142400000000000138e-02 -2.060999999999999898e-03 -2.205100000000000116e-02
-9.671200000000000629e-02 -2.190000000000000106e-03 3.173600000000000032e-02 1.487400000000000007e-02 1.039200000000000020e-02 -4.184000000000000219e-02 -9.964999999999999900e-03 -7.453999999999999689e-03 3.846100000000000213e-02 9.169499999999999873e-02 -1.118000000000000070e-03 -2.843700000000000047e-02
4.256900000000000267e-02 -2.906500000000000056e-02 -2.695799999999999932e-02 -3.590200000000000335e-02 3.163900000000000046e-02 9.797999999999999418e-03 -1.654100000000000015e-02 -2.510000000000000078e-03 5.101999999999999764e-03 9.945000000000000714e-03 -1.119999999999999983e-04 1.210699999999999971e-02
4.967599999999999794e-02 -2.691199999999999842e-02 -2.459400000000000128e-02 -3.745300000000000018e-02 4.175800000000000345e-02 -1.037500000000000054e-02 -2.099699999999999830e-02 -2.762000000000000132e-03 2.394200000000000148e-02 8.791999999999999468e-03 -1.207399999999999966e-02 1.106799999999999971e-02
5.491299999999999654e-02 -2.582900000000000126e-02 -2.299299999999999955e-02 -3.933199999999999891e-02 5.136899999999999800e-02 -2.826299999999999993e-02 -2.422699999999999854e-02 -3.919999999999999873e-03 4.100999999999999784e-02 8.701999999999999666e-03 -2.166999999999999829e-02 1.025099999999999970e-02
6.121100000000000152e-02 -2.406099999999999905e-02 -2.102899999999999908e-02 -4.098000000000000254e-02 6.112900000000000278e-02 -4.726000000000000340e-02 -2.811200000000000157e-02 -4.621000000000000107e-03 5.885599999999999860e-02 7.957999999999999796e-03 -3.249900000000000011e-02 9.423000000000000820e-03
6.747499999999999332e-02 -2.238800000000000165e-02 -1.919300000000000173e-02 -4.281299999999999689e-02 7.123300000000000465e-02 -6.645800000000000318e-02 -3.190599999999999686e-02 -5.486999999999999690e-03 7.709199999999999386e-02 7.315999999999999587e-03 -4.337599999999999789e-02 8.507999999999999938e-03
4.041000000000000321e-03 9.849000000000000116e-03 1.026000000000000002e-02 -2.707000000000000205e-03 5.060000000000000478e-04 -1.963200000000000014e-02 2.866000000000000058e-03 -1.279399999999999982e-02 1.694999999999999892e-03 -4.276000000000000287e-03 2.373000000000000109e-03 7.577999999999999667e-03
-5.853999999999999829e-03 1.158000000000000002e-02 2.773000000000000118e-02 8.966000000000000011e-03 -4.111000000000000071e-03 -1.307000000000000002e-02 5.165999999999999585e-03 -6.256000000000000276e-03 -8.396999999999999950e-03 -8.366000000000000172e-03 -1.301999999999999989e-03 -6.393000000000000245e-03
-1.509800000000000031e-02 1.304100000000000051e-02 4.430200000000000110e-02 1.971900000000000042e-02 -8.295999999999999555e-03 -6.816000000000000010e-03 7.381999999999999673e-03 -2.620000000000000258e-04 -1.793099999999999902e-02 -1.208099999999999972e-02 -4.549000000000000092e-03 -1.967800000000000105e-02
-2.459799999999999834e-02 1.466300000000000069e-02 6.131099999999999745e-02 3.079799999999999899e-02 -1.265999999999999938e-02 -4.929999999999999487e-04 9.613999999999999282e-03 5.944999999999999764e-03 -2.768699999999999981e-02 -1.589899999999999994e-02 -7.998999999999999166e-03 -3.322499999999999759e-02
-3.424100000000000060e-02 1.628200000000000133e-02 7.852900000000000158e-02 4.212500000000000272e-02 -1.714200000000000099e-02 5.976000000000000409e-03 1.185100000000000042e-02 1.229200000000000084e-02 -3.764300000000000285e-02 -1.980000000000000163e-02 -1.149900000000000054e-02 -4.696700000000000180e-02
-6.748999999999999791e-03 -8.543000000000000246e-03 -5.323699999999999960e-02 -6.849000000000000053e-03 9.346999999999999406e-03 1.341999999999999964e-02 1.817999999999999955e-03 -7.633000000000000028e-03 1.198500000000000086e-02 1.184499999999999963e-02 6.840999999999999859e-03 2.791000000000000078e-02
-2.812399999999999969e-02 9.679000000000000103e-03 -6.173499999999999821e-02 3.393000000000000183e-03 -8.349000000000000518e-03 2.539800000000000044e-02 -1.751600000000000032e-02 2.071599999999999830e-02 2.395399999999999960e-02 4.229200000000000320e-02 -2.203899999999999956e-02 1.243599999999999914e-02
-4.929599999999999954e-02 2.828100000000000058e-02 -7.020200000000000051e-02 1.361899999999999916e-02 -2.625600000000000156e-02 3.723200000000000121e-02 -3.656700000000000228e-02 4.910300000000000081e-02 3.584400000000000086e-02 7.229700000000000015e-02 -5.112099999999999977e-02 -2.837999999999999811e-03
-7.055000000000000160e-02 4.674099999999999783e-02 -7.867000000000000381e-02 2.396099999999999966e-02 -4.396400000000000308e-02 4.907799999999999663e-02 -5.576300000000000007e-02 7.719600000000000073e-02 4.757000000000000117e-02 1.023649999999999977e-01 -7.995199999999999529e-02 -1.794700000000000115e-02
-9.224999999999999867e-02 6.557799999999999740e-02 -8.750399999999999845e-02 3.436100000000000265e-02 -6.202400000000000274e-02 6.140600000000000225e-02 -7.525700000000000445e-02 1.056760000000000060e-01 5.940700000000000147e-02 1.331400000000000083e-01 -1.092019999999999935e-01 -3.329000000000000015e-02
3.050999999999999893e-03 -3.102999999999999856e-03 -7.229000000000000183e-03 6.756999999999999985e-03 -8.499999999999999526e-04 -7.246999999999999970e-03 1.016799999999999995e-02 -8.939000000000000765e-03 4.189999999999999931e-04 -2.019400000000000014e-02 1.306799999999999976e-02 1.403599999999999987e-02
-5.210000000000000221e-03 -4.364999999999999956e-03 -6.644999999999999865e-03 3.484999999999999817e-03 -2.250999999999999963e-03 2.530400000000000010e-02 1.590199999999999947e-02 -1.465600000000000062e-02 -1.800500000000000017e-02 -1.440100000000000061e-02 2.142399999999999860e-02 -6.179999999999999513e-04
-1.257800000000000064e-02 -5.316999999999999678e-03 -5.543000000000000184e-03 3.959999999999999762e-04 -3.706999999999999792e-03 5.601799999999999835e-02 2.111000000000000029e-02 -1.978900000000000103e-02 -3.602199999999999847e-02 -9.133000000000000493e-03 2.898099999999999982e-02 -1.443400000000000065e-02
-2.053299999999999917e-02 -6.586999999999999973e-03 -4.772000000000000200e-03 -2.922000000000000118e-03 -5.040000000000000209e-03 8.787999999999999978e-02 2.669499999999999998e-02 -2.528299999999999992e-02 -5.429799999999999904e-02 -3.451000000000000074e-03 3.708399999999999891e-02 -2.889100000000000001e-02
-2.835100000000000120e-02 -7.742999999999999883e-03 -3.906000000000000184e-03 -6.164000000000000208e-03 -6.491000000000000242e-03 1.197830000000000006e-01 3.214199999999999696e-02 -3.066800000000000082e-02 -7.266999999999999849e-02 2.167999999999999788e-03 4.504899999999999877e-02 -4.325199999999999878e-02
1.172100000000000052e-02 -3.017699999999999896e-02 -3.023100000000000093e-02 -1.553099999999999967e-02 2.246499999999999886e-02 2.286399999999999891e-02 1.165500000000000043e-02 -1.368800000000000051e-02 -1.509199999999999951e-02 -7.877999999999999586e-03 2.142900000000000013e-02 2.254400000000000154e-02
1.109699999999999923e-02 -4.890499999999999708e-02 -3.694900000000000267e-02 2.824999999999999820e-03 2.123900000000000093e-02 2.782300000000000051e-02 8.307000000000000148e-03 9.608000000000000221e-03 -1.116000000000000021e-03 -2.226799999999999960e-02 1.805999999999999966e-02 1.033199999999999917e-02
1.050300000000000018e-02 -6.679999999999999827e-02 -4.346599999999999769e-02 2.004999999999999838e-02 2.014600000000000071e-02 3.250600000000000017e-02 5.323999999999999740e-03 3.216200000000000309e-02 1.195700000000000061e-02 -3.591199999999999948e-02 1.450500000000000053e-02 -9.160000000000000390e-04
9.967999999999999430e-03 -8.491799999999999349e-02 -5.008800000000000058e-02 3.762399999999999772e-02 1.903399999999999884e-02 3.739499999999999769e-02 2.203000000000000097e-03 5.486699999999999910e-02 2.523200000000000096e-02 -4.983400000000000329e-02 1.101599999999999975e-02 -1.244100000000000067e-02
9.282999999999999585e-03 -1.034640000000000004e-01 -5.687899999999999900e-02 5.587400000000000005e-02 1.798500000000000099e-02 4.258300000000000279e-02 -9.089999999999999773e-04 7.798199999999999577e-02 3.894199999999999745e-02 -6.429200000000000192e-02 7.516000000000000111e-03 -2.454399999999999984e-02
1.914300000000000029e-02 -1.248600000000000057e-02 -2.416000000000000179e-03 6.545999999999999736e-03 -3.439000000000000216e-03 1.276200000000000077e-02 -6.211000000000000375e-03 1.014600000000000050e-02 -8.897999999999999660e-03 -1.955600000000000047e-02 5.867999999999999952e-03 -1.356999999999999916e-03
6.369999999999999794e-04 1.549000000000000030e-03 -9.383000000000000715e-03 3.472999999999999698e-02 -3.024999999999999911e-03 2.831799999999999942e-02 -9.634999999999999468e-03 6.104000000000000051e-03 -5.186999999999999771e-03 -2.579299999999999995e-02 -4.511000000000000253e-03 -1.363800000000000082e-02
-1.737800000000000109e-02 1.495200000000000001e-02 -1.630300000000000152e-02 6.186900000000000038e-02 -2.722000000000000027e-03 4.363100000000000311e-02 -1.277299999999999963e-02 2.145999999999999904e-03 -1.650999999999999907e-03 -3.180399999999999894e-02 -1.428300000000000056e-02 -2.558900000000000063e-02