7.503912802789248104e+00 -3.168780454085251498e-05 1.234892382842046301e-05 -3.168780454085251498e-05 7.503959402501807929e+00 -9.552941074815830128e-06 1.234892382842046301e-05 -9.552941074815830128e-06 7.503903482846735251e+00
7.534015052110243360e+00 4.520172118327490609e-05 3.518278298285830100e-05 4.520172118327490609e-05 7.534307232307995150e+00 1.139828969219488803e-03 3.518278298285830100e-05 1.139828969219488803e-03 7.533924648667877477e+00
7.534168598163129005e+00 2.031747467619366874e-04 8.434547973373977315e-05 2.031747467619366874e-04 7.535522086814436804e+00 4.568635819389971382e-03 8.434547973373977315e-05 4.568635819389971382e-03 7.534124561434759393e+00
7.543086851152875916e+00 4.599391629679621795e-04 2.187856504695625853e-04 4.599391629679621795e-04 7.546055485841515420e+00 1.022374393711814218e-02 2.187856504695625853e-04 1.022374393711814218e-02 7.542687025619110308e+00
7.548519911640255486e+00 8.201549410573591220e-04 3.574197953357922757e-04 8.201549410573591220e-04 7.553856277724072754e+00 1.816643194442050385e-02 3.574197953357922757e-04 1.816643194442050385e-02 7.547814624990659027e+00
5.763141936830966650e+00 1.572200018772440810e-01 3.182580896697329020e-02 1.572200018772440810e-01 5.965391027413573077e+00 3.935013305890877056e-01 3.182580896697329020e-02 3.935013305890877056e-01 4.719158722387569505e+00
5.749581650558216239e+00 1.579545243393898624e-01 3.241915048834299179e-02 1.579545243393898624e-01 5.950949314186248174e+00 3.985411563009470526e-01 3.241915048834299179e-02 3.985411563009470526e-01 4.706322226917615481e+00
5.752764422239969200e+00 1.576948181831311635e-01 3.311241568232278776e-02 1.576948181831311635e-01 5.950667190786015581e+00 4.061587265885640563e-01 3.311241568232278776e-02 4.061587265885640563e-01 4.710537384228793201e+00
5.761876077990359946e+00 1.564334904875827881e-01 3.387030931371864950e-02 1.564334904875827881e-01 5.954002352030530965e+00 4.161320153440628000e-01 3.387030931371864950e-02 4.161320153440628000e-01 4.720954963681363026e+00
5.774838014634044114e+00 1.541731645472523837e-01 3.472860358036236605e-02 1.541731645472523837e-01 5.959092258819354448e+00 4.286107888356990858e-01 3.472860358036236605e-02 4.286107888356990858e-01 4.735593185515443615e+00
7.577072179345884173e+00 -5.291947090011668298e-01 -1.572297751066762839e+00 -5.291947090011668298e-01 5.824930196548537609e+00 4.844364790143919630e-01 -1.572297751066762839e+00 4.844364790143919630e-01 6.404185620733116480e+00
7.634632466656711358e+00 -5.290762847913317302e-01 -1.574587599704649676e+00 -5.290762847913317302e-01 5.882608437197590412e+00 4.831382859864968293e-01 -1.574587599704649676e+00 4.831382859864968293e-01 6.462167809006219343e+00
7.623052085723980298e+00 -5.279476055429224157e-01 -1.579188015331249417e+00 -5.279476055429224157e-01 5.871385918688218908e+00 4.798897427512962555e-01 -1.579188015331249417e+00 4.798897427512962555e-01 6.451220514952706431e+00
7.626410342044238178e+00 -5.256933077115667485e-01 -1.585335244195656523e+00 -5.256933077115667485e-01 5.875899929374440944e+00 4.746402306107491698e-01 -1.585335244195656523e+00 4.746402306107491698e-01 6.455588790875732563e+00
7.635049188031279854e+00 -5.222356974816669828e-01 -1.593341945046700348e+00 -5.222356974816669828e-01 5.886608020650235140e+00 4.672079931235181283e-01 -1.593341945046700348e+00 4.672079931235181283e-01 6.465919949427973989e+00
2.987926240651540777e+00 1.238603248631372278e+00 -2.080258696709220700e-01 1.238603248631372278e+00 3.938191272868166504e+00 -2.047950867781003659e+00 -2.080258696709220700e-01 -2.047950867781003659e+00 2.730402331334786492e+00
2.994218547167390110e+00 1.238988887147285833e+00 -2.051415485395044758e-01 1.238988887147285833e+00 3.943845915188280760e+00 -2.048432854635603206e+00 -2.051415485395044758e-01 -2.048432854635603206e+00 2.736022405930333967e+00
3.001011472786541567e+00 1.238533622859904204e+00 -2.020660016977166018e-01 1.238533622859904204e+00 3.949680505805077235e+00 -2.049075912377015030e+00 -2.020660016977166018e-01 -2.049075912377015030e+00 2.742051654513840475e+00
3.004183858289350084e+00 1.237145520331550008e+00 -1.987756936735129709e-01 1.237145520331550008e+00 3.951179666342146124e+00 -2.049875873265396997e+00 -1.987756936735129709e-01 -2.049875873265396997e+00 2.744500569412414936e+00
3.010370500342161471e+00 1.234757895724760912e+00 -1.952093341751081901e-01 1.234757895724760912e+00 3.955062283746163754e+00 -2.050710156717178823e+00 -1.952093341751081901e-01 -2.050710156717178823e+00 2.749829882863732866e+00
2.290192690481436255e+00 -1.228137611976359622e+00 -1.533310071616789116e+00 -1.228137611976359622e+00 1.560792208608110077e+00 -1.821542961427675023e+00 -1.533310071616789116e+00 -1.821542961427675023e+00 2.147926548282161452e+00
2.312100513560364501e+00 -1.227007659926757865e+00 -1.532609142789193468e+00 -1.227007659926757865e+00 1.582134806664429849e+00 -1.820851992512372064e+00 -1.532609142789193468e+00 -1.820851992512372064e+00 2.169630940152512011e+00
2.306388005864910884e+00 -1.226950390431075011e+00 -1.531174417423436296e+00 -1.226950390431075011e+00 1.576124497591426143e+00 -1.819197402082754378e+00 -1.531174417423436296e+00 -1.819197402082754378e+00 2.163810367408683266e+00
2.312599256168418993e+00 -1.227698379844253562e+00 -1.528765861633264445e+00 -1.227698379844253562e+00 1.582384053469553686e+00 -1.816384224855693619e+00 -1.528765861633264445e+00 -1.816384224855693619e+00 2.169920026606806829e+00
2.316535413506477070e+00 -1.229445099462578295e+00 -1.525512705280675396e+00 -1.229445099462578295e+00 1.586823684374005561e+00 -1.812416942791721164e+00 -1.525512705280675396e+00 -1.812416942791721164e+00 2.174025502453839742e+00
5.998606943798180602e+00 1.133137141054207042e+00 1.177181061453605349e+00 1.133137141054207042e+00 6.502237735584619926e+00 -1.934358572539242260e+00 1.177181061453605349e+00 -1.934358572539242260e+00 6.080487117126023300e+00
5.983562838425286579e+00 1.134994303556292161e+00 1.176598389740495687e+00 1.134994303556292161e+00 6.486037994034687060e+00 -1.933989933832492403e+00 1.176598389740495687e+00 -1.933989933832492403e+00 6.066160637906088837e+00
5.987219393458713235e+00 1.137053660955977819e+00 1.177593264400587758e+00 1.137053660955977819e+00 6.488102323440052110e+00 -1.933333392320727651e+00 1.177593264400587758e+00 -1.933333392320727651e+00 6.070487229895264569e+00
5.991043576112165425e+00 1.139679116716511009e+00 1.180334023340431804e+00 1.139679116716511009e+00 6.489373736320750652e+00 -1.932560837343126448e+00 1.180334023340431804e+00 -1.932560837343126448e+00 6.074995418472803443e+00
6.002804737164061599e+00 1.142470542761842678e+00 1.184576564757420902e+00 1.142470542761842678e+00 6.498274573534339460e+00 -1.931532105691984080e+00 1.184576564757420902e+00 -1.931532105691984080e+00 6.087540972611059864e+00
9.681113899265563205e+00 1.522944093117206910e+00 2.000632970485945461e-01 1.522944093117206910e+00 1.135175452810321950e+01 -2.258755690038994068e-01 2.000632970485945461e-01 -2.258755690038994068e-01 1.153305785756924884e+01
9.676789215745305484e+00 1.521463938139780092e+00 2.025890888248669808e-01 1.521463938139780092e+00 1.134664843267964507e+01 -2.245042125128669519e-01 2.025890888248669808e-01 -2.245042125128669519e-01 1.152792608299981936e+01
9.678748940034395787e+00 1.520880075455030456e+00 2.053009417807702408e-01 1.520880075455030456e+00 1.134927085913638045e+01 -2.229913954639553830e-01 2.053009417807702408e-01 -2.229913954639553830e-01 1.152999820986594948e+01
9.685409750060648193e+00 1.521177412933375273e+00 2.080652793067147288e-01 1.521177412933375273e+00 1.135781818536046295e+01 -2.212416094550296308e-01 2.080652793067147288e-01 -2.212416094550296308e-01 1.153739380387277791e+01
9.695081552566472638e+00 1.522357527364472274e+00 2.110055415073464891e-01 1.522357527364472274e+00 1.137066293916929283e+01 -2.193262605320255854e-01 2.110055415073464891e-01 -2.193262605320255854e-01 1.154865546086508665e+01
1.022620797792916392e+01 1.304627763434781818e+00 1.364802454581776958e+00 1.304627763434781818e+00 6.886357023996640514e+00 6.495130518648083440e-01 1.364802454581776958e+00 6.495130518648083440e-01 9.699622777165314957e+00
1.023414586505413837e+01 1.302695578100956597e+00 1.364563660652688748e+00 1.302695578100956597e+00 6.896391884951259321e+00 6.489451406051578441e-01 1.364563660652688748e+00 6.489451406051578441e-01 9.708252913871053380e+00
1.022990733027045884e+01 1.298916014901865701e+00 1.365497691959536075e+00 1.298916014901865701e+00 6.894516008099269122e+00 6.474599756679413343e-01 1.365497691959536075e+00 6.474599756679413343e-01 9.704664110018587309e+00
1.023329939918230913e+01 1.293292980956657345e+00 1.367417926105379822e+00 1.293292980956657345e+00 6.901313935755255535e+00 6.449794146702042541e-01 1.367417926105379822e+00 6.449794146702042541e-01 9.709079384486068776e+00
1.023905320670369790e+01 1.285789703379234705e+00 1.370422041068913854e+00 1.285789703379234705e+00 6.911207910590017711e+00 6.415501132111812721e-01 1.370422041068913854e+00 6.415501132111812721e-01 9.715908109434161943e+00
9.610057628902673343e+00 -1.021222113491872641e+00 -1.500484498388859445e+00 -1.021222113491872641e+00 9.385631854583685652e+00 -2.190583774887182145e+00 -1.500484498388859445e+00 -2.190583774887182145e+00 8.363602904758884904e+00
9.772131421201322610e+00 -1.020103352354673421e+00 -1.500764589457599385e+00 -1.020103352354673421e+00 9.546593069276500643e+00 -2.185349530098913640e+00 -1.500764589457599385e+00 -2.185349530098913640e+00 8.526415743565159744e+00
9.773576764402319483e+00 -1.019744936555345483e+00 -1.502484298235333471e+00 -1.019744936555345483e+00 9.546474895121576765e+00 -2.177069094545878158e+00 -1.502484298235333471e+00 -2.177069094545878158e+00 8.527572063929893531e+00
9.775616184653445728e+00 -1.019824635404013913e+00 -1.504509290246616171e+00 -1.019824635404013913e+00 9.546365652734179363e+00 -2.164525457648120987e+00 -1.504509290246616171e+00 -2.164525457648120987e+00 8.528575399148330405e+00
9.799316744286066694e+00 -1.020249008871205287e+00 -1.506788723122469698e+00 -1.020249008871205287e+00 9.567837850879602257e+00 -2.147133016083672796e+00 -1.506788723122469698e+00 -2.147133016083672796e+00 8.551692416636102578e+00
1.107388671135575287e+01 -1.346054882789326834e+00 9.981461572969172469e-01 -1.346054882789326834e+00 1.100886570941161580e+01 1.768360312499094589e-01 9.981461572969172469e-01 1.768360312499094589e-01 1.113722432457242029e+01
1.107650189573895716e+01 -1.345033884607585328e+00 1.000013118980915827e+00 -1.345033884607585328e+00 1.101059695742885047e+01 1.748441410912084104e-01 1.000013118980915827e+00 1.748441410912084104e-01 1.113871829836432248e+01
1.107887014416227522e+01 -1.345968376561340385e+00 1.003330913688572634e+00 -1.345968376561340385e+00 1.101190825703022469e+01 1.708592373162999001e-01 1.003330913688572634e+00 1.708592373162999001e-01 1.114002937327419396e+01
1.108940233359250094e+01 -1.348563114017931497e+00 1.008146277252151224e+00 -1.348563114017931497e+00 1.102098377145775920e+01 1.648237989008605742e-01 1.008146277252151224e+00 1.648237989008605742e-01 1.114933879155454477e+01
1.109043703795581948e+01 -1.353020768711498345e+00 1.014472691161726781e+00 -1.353020768711498345e+00 1.102041732418307518e+01 1.567769221661102497e-01 1.014472691161726781e+00 1.567769221661102497e-01 1.114920465072829003e+01
1.309573886501688537e-02 3.140097628315645394e-05 -1.480696442620385731e-05 3.140097628315645394e-05 1.315420084525137888e-02 1.506225691631082104e-05 -1.480696442620385731e-05 1.506225691631082104e-05 1.311233287687383481e-02
1.952247201096957152e-02 3.556224387189995425e-04 -4.888851185548342363e-04 3.556224387189995425e-04 1.938742228370298609e-02 -9.535174505495070708e-04 -4.888851185548342363e-04 -9.535174505495070708e-04 1.977980684099739025e-02
1.438420006258672723e-02 1.458485995981079978e-03 -2.052296327969875978e-03 1.458485995981079978e-03 1.370869613376370262e-02 -3.930738470176910020e-03 -2.052296327969875978e-03 -3.930738470176910020e-03 1.569921167912769269e-02
2.527778590794094518e-02 3.316504738979556867e-03 -4.690999505715445599e-03 3.316504738979556867e-03 2.376466731907697638e-02 -8.875243418568570103e-03 -4.690999505715445599e-03 -8.875243418568570103e-03 2.814420998686192887e-02
3.080129422389519742e-02 5.898788276411487744e-03 -8.336831556932985249e-03 5.898788276411487744e-03 2.806940928726058687e-02 -1.582838967912181607e-02 -8.336831556932985249e-03 -1.582838967912181607e-02 3.592526979283205274e-02
-2.115112753203933327e+00 -1.482840981345423748e+00 1.636063111794326730e+00 -1.482840981345423748e+00 -1.217337630367885337e+00 -1.143530499311828263e+00 1.636063111794326730e+00 -1.143530499311828263e+00 -2.496289761614022495e+00
-2.104628832041060438e+00 -1.483179146903011336e+00 1.636777834955697397e+00 -1.483179146903011336e+00 -1.206899990027824110e+00 -1.142882304833248819e+00 1.636777834955697397e+00 -1.142882304833248819e+00 -2.485629394814181659e+00
-2.101767835721813249e+00 -1.483433428469253190e+00 1.637632452422384199e+00 -1.483433428469253190e+00 -1.204097633614753082e+00 -1.141840460401552626e+00 1.637632452422384199e+00 -1.141840460401552626e+00 -2.482315582717200986e+00
-2.099424606107768376e+00 -1.483497064600618920e+00 1.638565168777565084e+00 -1.483497064600618920e+00 -1.202073373535197387e+00 -1.140187761700590663e+00 1.638565168777565084e+00 -1.140187761700590663e+00 -2.479397787206322423e+00
-2.097105831701231882e+00 -1.483344811211938286e+00 1.639584661675517419e+00 -1.483344811211938286e+00 -1.199964440586634984e+00 -1.138014929661441910e+00 1.639584661675517419e+00 -1.138014929661441910e+00 -2.476056101431966638e+00
-1.840557355570380249e+00 -1.603330862174308091e+00 1.105751483400912782e+00 -1.603330862174308091e+00 -1.665734677298530420e-01 -1.051810357206551139e+00 1.105751483400912782e+00 -1.051810357206551139e+00 -1.574301441738387153e+00
-1.828090321728092604e+00 -1.603429670685134090e+00 1.105284223153664147e+00 -1.603429670685134090e+00 -1.542736282887791355e-01 -1.054889022385975483e+00 1.105284223153664147e+00 -1.054889022385975483e+00 -1.562177117415228134e+00
-1.822174032131180121e+00 -1.602841240000924872e+00 1.102294485633983134e+00 -1.602841240000924872e+00 -1.486974479870259713e-01 -1.058352520712827927e+00 1.102294485633983134e+00 -1.058352520712827927e+00 -1.557066897248739146e+00
-1.820562153292729857e+00 -1.601405136302786358e+00 1.096736766922410622e+00 -1.601405136302786358e+00 -1.476438372347431971e-01 -1.062036778054657793e+00 1.096736766922410622e+00 -1.062036778054657793e+00 -1.556656581906413761e+00
-1.812602087656098204e+00 -1.599138261046517462e+00 1.088589745182399815e+00 -1.599138261046517462e+00 -1.406302531228668662e-01 -1.066015120727393795e+00 1.088589745182399815e+00 -1.066015120727393795e+00 -1.550371060505887799e+00
-1.280383541245075030e+00 8.698695849774394917e-01 -3.845074086747101716e-01 8.698695849774394917e-01 -1.534536353232519801e+00 1.375660460929392981e+00 -3.845074086747101716e-01 1.375660460929392981e+00 -2.847962501795451851e-01
-1.232443695175517551e+00 8.701175872299076186e-01 -3.837341184747471434e-01 8.701175872299076186e-01 -1.485771387861125170e+00 1.375293251742614409e+00 -3.837341184747471434e-01 1.375293251742614409e+00 -2.365068168178462438e-01
-1.243298782272049374e+00 8.695941133009781332e-01 -3.833790891269088785e-01 8.695941133009781332e-01 -1.495612956870507215e+00 1.374922932809723219e+00 -3.833790891269088785e-01 1.374922932809723219e+00 -2.468739329202325472e-01
-1.238065857001320991e+00 8.680625633405956165e-01 -3.833140436040567978e-01 8.680625633405956165e-01 -1.488642979250465181e+00 1.373980420592140872e+00 -3.833140436040567978e-01 1.373980420592140872e+00 -2.408524278644883221e-01
-1.235214219816202830e+00 8.655618091751656751e-01 -3.836384937817892693e-01 8.655618091751656751e-01 -1.483895174373279113e+00 1.372650226692539555e+00 -3.836384937817892693e-01 1.372650226692539555e+00 -2.375770877715484009e-01
-1.270902271258973260e+00 -1.588131608755288360e+00 -9.575982157767081171e-01 -1.588131608755288360e+00 -2.311863225454704907e+00 -4.779802751285883167e-01 -9.575982157767081171e-01 -4.779802751285883167e-01 -2.895650509547083917e+00
-1.264467361098908560e+00 -1.587650935072772551e+00 -9.582969460337935619e-01 -1.587650935072772551e+00 -2.305224496997007044e+00 -4.802188486692132163e-01 -9.582969460337935619e-01 -4.802188486692132163e-01 -2.888780013581469852e+00
-1.265122321838002994e+00 -1.585998503932714021e+00 -9.595293480042152989e-01 -1.585998503932714021e+00 -2.305843071028374158e+00 -4.819055571426381634e-01 -9.595293480042152989e-01 -4.819055571426381634e-01 -2.888724378832698392e+00
-1.261427752644688871e+00 -1.583044852483705744e+00 -9.612698455238459783e-01 -1.583044852483705744e+00 -2.302009810470823759e+00 -4.828125881178736423e-01 -9.612698455238459783e-01 -4.828125881178736423e-01 -2.883714614725292780e+00
-1.258576142180394708e+00 -1.578852998284782982e+00 -9.635305674952615584e-01 -1.578852998284782982e+00 -2.299031110201278150e+00 -4.832062501079976702e-01 -9.635305674952615584e-01 -4.832062501079976702e-01 -2.878902868136027138e+00
-3.939178285783913047e+00 2.900868705919911750e-01 -2.890749009446432205e-01 2.900868705919911750e-01 -3.134215485250253064e+00 3.163570120978285161e-01 -2.890749009446432205e-01 3.163570120978285161e-01 -3.129905621945791694e+00
-3.927319451022590169e+00 2.902779905890500167e-01 -2.901268662093532402e-01 2.902779905890500167e-01 -3.122505895879891469e+00 3.169137296173510365e-01 -2.901268662093532402e-01 3.169137296173510365e-01 -3.118364604707667631e+00
-3.933265645088386719e+00 2.897550948667598769e-01 -2.906672096841838582e-01 2.897550948667598769e-01 -3.129012565442681026e+00 3.177512217392942095e-01 -2.906672096841838582e-01 3.177512217392942095e-01 -3.124328514952966707e+00
-3.930508094906103977e+00 2.885203308408179623e-01 -2.907783384465186249e-01 2.885203308408179623e-01 -3.127220278616330340e+00 3.188821045308796176e-01 -2.907783384465186249e-01 3.188821045308796176e-01 -3.121881534765904576e+00
-3.925183040830748649e+00 2.865514190733650657e-01 -2.904191831711468441e-01 2.865514190733650657e-01 -3.123478675190764164e+00 3.203117465313505829e-01 -2.904191831711468441e-01 3.203117465313505829e-01 -3.116855776753359120e+00
2.243293161533372881e+00 -1.905322305437204600e+00 7.787643708238718432e-01 -1.905322305437204600e+00 2.590996258204698588e+00 1.934501525349633821e+00 7.787643708238718432e-01 1.934501525349633821e+00 3.600388428639367699e+00
2.262883359932323035e+00 -1.906499117486185391e+00 7.782651993954710079e-01 -1.906499117486185391e+00 2.610458027806514814e+00 1.931866639720904333e+00 7.782651993954710079e-01 1.931866639720904333e+00 3.618752760611929631e+00
2.263095353724137837e+00 -1.910602922888662958e+00 7.768847747045846130e-01 -1.910602922888662958e+00 2.609844231827888716e+00 1.928675147136456935e+00 7.768847747045846130e-01 1.928675147136456935e+00 3.616743996182280707e+00
2.273687401678190945e+00 -1.917173744417282499e+00 7.745328761374868920e-01 -1.917173744417282499e+00 2.619338595648277757e+00 1.924572081247206246e+00 7.745328761374868920e-01 1.924572081247206246e+00 3.624438138303108570e+00
2.282640195311816278e+00 -1.926446254269493563e+00 7.713152540856762496e-01 -1.926446254269493563e+00 2.626438908647615644e+00 1.919724818546922229e+00 7.713152540856762496e-01 1.919724818546922229e+00 3.629389672368436237e+00
-1.064586839246484118e+00 -9.763997534210978602e-01 -2.850156112611516024e-01 -9.763997534210978602e-01 -1.734914513029895966e+00 1.038815354421958673e-02 -2.850156112611516024e-01 1.038815354421958673e-02 5.860416920082810455e-01
-1.002080946854432497e+00 -9.761105629938834349e-01 -2.841237902915884628e-01 -9.761105629938834349e-01 -1.672124331743294556e+00 1.054500258948842459e-02 -2.841237902915884628e-01 1.054500258948842459e-02 6.481438528940075550e-01
-1.002384583904237347e+00 -9.755786177120671088e-01 -2.845277797733171132e-01 -9.755786177120671088e-01 -1.672469502833047184e+00 1.071191267548996483e-02 -2.845277797733171132e-01 1.071191267548996483e-02 6.484188546740348169e-01
-1.005845065965481178e+00 -9.745265940169909324e-01 -2.859636708686564832e-01 -9.745265940169909324e-01 -1.676279799541305016e+00 1.099130003737507945e-02 -2.859636708686564832e-01 1.099130003737507945e-02 6.449341229248712892e-01
-9.991410591572552624e-01 -9.729317900731554447e-01 -2.885720601724611201e-01 -9.729317900731554447e-01 -1.670035504901943080e+00 1.121419078591500557e-02 -2.885720601724611201e-01 1.121419078591500557e-02 6.521458253269935001e-01
-1.773791835758584012e+00 -1.354080070684138271e+00 -1.106911509422400464e+00 -1.354080070684138271e+00 -6.410434770321512543e-01 1.838570411583840158e+00 -1.106911509422400464e+00 1.838570411583840158e+00 -1.797275992694775226e+00
-1.725468024776022125e+00 -1.353807041543246159e+00 -1.105993067555903098e+00 -1.353807041543246159e+00 -5.932545111001815696e-01 1.838653858885736625e+00 -1.105993067555903098e+00 1.838653858885736625e+00 -1.749420268921288324e+00
-1.728819998584072870e+00 -1.354548157893213256e+00 -1.103234351909772260e+00 -1.354548157893213256e+00 -5.965551126630020962e-01 1.840245616169410514e+00 -1.103234351909772260e+00 1.840245616169410514e+00 -1.753540479452422529e+00
-1.723840802389042581e+00 -1.355908348914124595e+00 -1.098531835675092383e+00 -1.355908348914124595e+00 -5.913516518441254144e-01 1.842673411108958215e+00 -1.098531835675092383e+00 1.842673411108958215e+00 -1.749251548907766907e+00
-1.719053534988373988e+00 -1.357855278776494590e+00 -1.091761651763111018e+00 -1.357855278776494590e+00 -5.862397222845162625e-01 1.846133344863837511e+00 -1.091761651763111018e+00 1.846133344863837511e+00 -1.745526409196548556e+00
-9.259920030556100246e-01 -9.556244624913576846e-01 1.376785149840690448e+00 -9.556244624913576846e-01 -2.265437914602566050e-01 -1.668738176629830150e+00 1.376785149840690448e+00 -1.668738176629830150e+00 -2.371096607662399602e+00
-8.827670824899139790e-01 -9.535101605172316974e-01 1.377852178314232123e+00 -9.535101605172316974e-01 -1.832076192047491781e-01 -1.667884033983287440e+00 1.377852178314232123e+00 -1.667884033983287440e+00 -2.326787243054897036e+00
-8.795743149526394911e-01 -9.510847177190301371e-01 1.380534955628585969e+00 -9.510847177190301371e-01 -1.799402506511759425e-01 -1.667250055311675139e+00 1.380534955628585969e+00 -1.667250055311675139e+00 -2.323278655884162713e+00
-8.754255106977802958e-01 -9.478446422202004840e-01 1.384350264747865822e+00 -9.478446422202004840e-01 -1.755252741291042362e-01 -1.666186405978244522e+00 1.384350264747865822e+00 -1.666186405978244522e+00 -2.318524725615562776e+00
-8.725197101360939733e-01 -9.439591509601517050e-01 1.389463943471370033e+00 -9.439591509601517050e-01 -1.725529305006149872e-01 -1.664688667107465880e+00 1.389463943471370033e+00 -1.664688667107465880e+00 -2.315363670008561581e+00
-5.731077534119561889e+00 4.407646946710232162e-05 1.087963486846196568e-05 4.407646946710232162e-05 -5.731099014424301252e+00 3.570751956828543120e-05 1.087963486846196568e-05 3.570751956828543120e-05 -5.731063864834726296e+00
-5.719867325730096042e+00 1.057277337217201260e-04 9.097048540013967293e-04 1.057277337217201260e-04 -5.719728959091768594e+00 -4.379750447047509217e-05 9.097048540013967293e-04 -4.379750447047509217e-05 -5.719706641892038590e+00
-5.727366462769428956e+00 3.501010707671735485e-04 3.352601329466048819e-03 3.501010707671735485e-04 -5.727323223194952462e+00 -1.037749787453295198e-04 3.352601329466048819e-03 -1.037749787453295198e-04 -5.726959173874353937e+00
-5.723937146065890325e+00 7.858443954989065804e-04 7.489931194444495247e-03 7.858443954989065804e-04 -5.723644511784429234e+00 -2.103396074569313342e-04 7.489931194444495247e-03 -2.103396074569313342e-04 -5.723009866417101854e+00
-5.720582591981448140e+00 1.385898103244078208e-03 1.341737944277987711e-02 1.385898103244078208e-03 -5.720217147835866989e+00 -3.704655155209613123e-04 1.341737944277987711e-02 -3.704655155209613123e-04 -5.719034057285170114e+00
-6.461441993986685617e+00 4.083046583951446817e-01 -9.878955118293090976e-02 4.083046583951446817e-01 -5.077529309103242738e+00 8.870085521407023998e-01 -9.878955118293090976e-02 8.870085521407023998e-01 -7.619781968410126005e+00
-6.445194777701509281e+00 4.093049044021622729e-01 -1.010039376114612447e-01 4.093049044021622729e-01 -5.061412633398643557e+00 8.861108737327094698e-01 -1.010039376114612447e-01 8.861108737327094698e-01 -7.602933756854631575e+00
-6.437903436398942247e+00 4.107374601240774137e-01 -1.033872921507815457e-01 4.107374601240774137e-01 -5.054474768862961653e+00 8.847633671769277175e-01 -1.033872921507815457e-01 8.847633671769277175e-01 -7.594569835370527322e+00
-6.436304455564560101e+00 4.126240823243195188e-01 -1.061837426398927614e-01 4.126240823243195188e-01 -5.053306119855893286e+00 8.832019662066511456e-01 -1.061837426398927614e-01 8.832019662066511456e-01 -7.591402389681638496e+00
-6.434005019969895933e+00 4.150475597260681604e-01 -1.093579696576431476e-01 4.150475597260681604e-01 -5.051505677043261144e+00 8.811265970197740272e-01 -1.093579696576431476e-01 8.811265970197740272e-01 -7.586790803500696789e+00
-7.988870637359993587e+00 -6.221869624366718199e-01 1.187934984973091801e+00 -6.221869624366718199e-01 -8.131118666978242260e+00 -9.728868679974655986e-01 1.187934984973091801e+00 -9.728868679974655986e-01 -7.859533463021780797e+00
-7.935959458845838199e+00 -6.217247683212804299e-01 1.187011470455192397e+00 -6.217247683212804299e-01 -8.078192635345068595e+00 -9.713281642132344240e-01 1.187011470455192397e+00 -9.713281642132344240e-01 -7.806904202531380399e+00
-7.955096100896335010e+00 -6.215005153478391220e-01 1.186391134307880790e+00 -6.215005153478391220e-01 -8.096628268425339670e+00 -9.697158727054797644e-01 1.186391134307880790e+00 -9.697158727054797644e-01 -7.825871053044843428e+00
-7.945766594725920839e+00 -6.210170608856149244e-01 1.185320253550291580e+00 -6.210170608856149244e-01 -8.086190020605716455e+00 -9.674322784655402518e-01 1.185320253550291580e+00 -9.674322784655402518e-01 -7.815846653894388041e+00
-7.946114041215941448e+00 -6.205822431072410827e-01 1.184176272148112830e+00 -6.205822431072410827e-01 -8.084824989844001664e+00 -9.647068767441584480e-01 1.184176272148112830e+00 -9.647068767441584480e-01 -7.815297088490643418e+00
-6.449760033879024412e+00 -1.246162872464194882e+00 -9.863118201817474562e-01 -1.246162872464194882e+00 -6.590637808738624592e+00 -2.777970560111335252e-01 -9.863118201817474562e-01 -2.777970560111335252e-01 -6.782615107021219281e+00
-6.445345314691988570e+00 -1.244813205422245828e+00 -9.860567538225478712e-01 -1.244813205422245828e+00 -6.585693663715920465e+00 -2.798866708448426999e-01 -9.860567538225478712e-01 -2.798866708448426999e-01 -6.777292476433251167e+00
-6.446461478270510526e+00 -1.245195095655263318e+00 -9.855775468362431013e-01 -1.245195095655263318e+00 -6.586748259552566154e+00 -2.817200844301012141e-01 -9.855775468362431013e-01 -2.817200844301012141e-01 -6.777641738600297394e+00
-6.438036627914480725e+00 -1.247293789602981651e+00 -9.847346078449396023e-01 -1.247293789602981651e+00 -6.578587838392057741e+00 -2.833750366806138676e-01 -9.847346078449396023e-01 -2.833750366806138676e-01 -6.768554964088525416e+00
-6.436062204339764392e+00 -1.251063040528416437e+00 -9.836014209276504605e-01 -1.251063040528416437e+00 -6.577395069789082171e+00 -2.848032948032060974e-01 -9.836014209276504605e-01 -2.848032948032060974e-01 -6.766019621501421000e+00
-5.485616246683569841e+00 -9.091642795583527725e-01 9.729443461843404473e-01 -9.091642795583527725e-01 -4.498736589576313172e+00 -1.672702916657270791e-02 9.729443461843404473e-01 -1.672702916657270791e-02 -3.860566451334615401e+00
-5.465057554784850780e+00 -9.097766882695091928e-01 9.716814586319513225e-01 -9.097766882695091928e-01 -4.478264993370863145e+00 -1.551891877976098975e-02 9.716814586319513225e-01 -1.551891877976098975e-02 -3.840217829865885779e+00
-5.461455408376474807e+00 -9.119973545620210231e-01 9.709082789398248980e-01 -9.119973545620210231e-01 -4.474144928861951698e+00 -1.526968267638337262e-02 9.709082789398248980e-01 -1.526968267638337262e-02 -3.836459020763958172e+00
-5.460635120321951419e+00 -9.153976471152441841e-01 9.703522907092132499e-01 -9.153976471152441841e-01 -4.472802340533647225e+00 -1.579937786751777970e-02 9.703522907092132499e-01 -1.579937786751777970e-02 -3.835413324673083491e+00
-5.454816689794309781e+00 -9.203007512060858986e-01 9.701449591375024273e-01 -9.203007512060858986e-01 -4.466123908506438589e+00 -1.716661592033213307e-02 9.701449591375024273e-01 -1.716661592033213307e-02 -3.829335524266432866e+00
-8.624681549201923758e+00 3.029316925380435843e-01 7.637466355938693496e-01 3.029316925380435843e-01 -8.373210173752996255e+00 -3.173887794497957104e-01 7.637466355938693496e-01 -3.173887794497957104e-01 -8.327720546566691695e+00
-8.638434767127790792e+00 3.024893865573518581e-01 7.634941832102053461e-01 3.024893865573518581e-01 -8.387340159962748842e+00 -3.167037194890034435e-01 7.634941832102053461e-01 -3.167037194890034435e-01 -8.341446726518990218e+00
-8.636466872877482714e+00 3.011136827064429533e-01 7.629910417889800289e-01 3.011136827064429533e-01 -8.386045863923568433e+00 -3.138920641286860325e-01 7.629910417889800289e-01 -3.138920641286860325e-01 -8.339544957747522247e+00
-8.633470066176410995e+00 2.987437455447831680e-01 7.622945200785219422e-01 2.987437455447831680e-01 -8.384067389596646436e+00 -3.088415470003225138e-01 7.622945200785219422e-01 -3.088415470003225138e-01 -8.336764160943998192e+00
-8.628470979976036404e+00 2.954077886100112682e-01 7.614598695900406389e-01 2.954077886100112682e-01 -8.380350843794767357e+00 -3.014969165927034456e-01 7.614598695900406389e-01 -3.014969165927034456e-01 -8.332038981171532299e+00