2.778020875000000167e+00 0.000000000000000000e+00 0.000000000000000000e+00 0.000000000000000000e+00 2.778020875000000167e+00 0.000000000000000000e+00 0.000000000000000000e+00 0.000000000000000000e+00 2.778020875000000167e+00
2.778020875000000167e+00 0.000000000000000000e+00 0.000000000000000000e+00 0.000000000000000000e+00 2.778020875000000167e+00 0.000000000000000000e+00 0.000000000000000000e+00 0.000000000000000000e+00 2.778020875000000167e+00
2.778020875000000167e+00 0.000000000000000000e+00 0.000000000000000000e+00 0.000000000000000000e+00 2.778020875000000167e+00 0.000000000000000000e+00 0.000000000000000000e+00 0.000000000000000000e+00 2.778020875000000167e+00
2.778020875000000167e+00 0.000000000000000000e+00 0.000000000000000000e+00 0.000000000000000000e+00 2.778020875000000167e+00 0.000000000000000000e+00 0.000000000000000000e+00 0.000000000000000000e+00 2.778020875000000167e+00
2.778020875000000167e+00 0.000000000000000000e+00 0.000000000000000000e+00 0.000000000000000000e+00 2.778020875000000167e+00 0.000000000000000000e+00 0.000000000000000000e+00 0.000000000000000000e+00 2.778020875000000167e+00
2.718186152999999994e+00 0.000000000000000000e+00 0.000000000000000000e+00 2.251036500000000093e-02 2.803317142000000040e+00 0.000000000000000000e+00 5.515953400000000312e-02 6.695344999999999769e-02 2.834498308000000133e+00
2.718186152999999994e+00 0.000000000000000000e+00 0.000000000000000000e+00 2.251036500000000093e-02 2.803317142000000040e+00 0.000000000000000000e+00 5.515953400000000312e-02 6.695344999999999769e-02 2.834498308000000133e+00
2.718186152999999994e+00 0.000000000000000000e+00 0.000000000000000000e+00 2.251036500000000093e-02 2.803317142000000040e+00 0.000000000000000000e+00 5.515953400000000312e-02 6.695344999999999769e-02 2.834498308000000133e+00
2.718186152999999994e+00 0.000000000000000000e+00 0.000000000000000000e+00 2.251036500000000093e-02 2.803317142000000040e+00 0.000000000000000000e+00 5.515953400000000312e-02 6.695344999999999769e-02 2.834498308000000133e+00
2.718186152999999994e+00 0.000000000000000000e+00 0.000000000000000000e+00 2.251036500000000093e-02 2.803317142000000040e+00 0.000000000000000000e+00 5.515953400000000312e-02 6.695344999999999769e-02 2.834498308000000133e+00
2.699672178999999783e+00 0.000000000000000000e+00 0.000000000000000000e+00 5.193080800000000191e-02 2.842586218000000109e+00 0.000000000000000000e+00 -3.876310699999999804e-02 7.975073900000000104e-02 2.820938562999999899e+00
2.699672178999999783e+00 0.000000000000000000e+00 0.000000000000000000e+00 5.193080800000000191e-02 2.842586218000000109e+00 0.000000000000000000e+00 -3.876310699999999804e-02 7.975073900000000104e-02 2.820938562999999899e+00
2.699672178999999783e+00 0.000000000000000000e+00 0.000000000000000000e+00 5.193080800000000191e-02 2.842586218000000109e+00 0.000000000000000000e+00 -3.876310699999999804e-02 7.975073900000000104e-02 2.820938562999999899e+00
2.699672178999999783e+00 0.000000000000000000e+00 0.000000000000000000e+00 5.193080800000000191e-02 2.842586218000000109e+00 0.000000000000000000e+00 -3.876310699999999804e-02 7.975073900000000104e-02 2.820938562999999899e+00
2.699672178999999783e+00 0.000000000000000000e+00 0.000000000000000000e+00 5.193080800000000191e-02 2.842586218000000109e+00 0.000000000000000000e+00 -3.876310699999999804e-02 7.975073900000000104e-02 2.820938562999999899e+00
2.802468376000000205e+00 0.000000000000000000e+00 0.000000000000000000e+00 -3.409663400000000066e-02 2.741585992000000083e+00 0.000000000000000000e+00 3.710076000000000346e-02 6.805960899999999314e-02 2.791918942000000126e+00
2.802468376000000205e+00 0.000000000000000000e+00 0.000000000000000000e+00 -3.409663400000000066e-02 2.741585992000000083e+00 0.000000000000000000e+00 3.710076000000000346e-02 6.805960899999999314e-02 2.791918942000000126e+00
2.802468376000000205e+00 0.000000000000000000e+00 0.000000000000000000e+00 -3.409663400000000066e-02 2.741585992000000083e+00 0.000000000000000000e+00 3.710076000000000346e-02 6.805960899999999314e-02 2.791918942000000126e+00
2.802468376000000205e+00 0.000000000000000000e+00 0.000000000000000000e+00 -3.409663400000000066e-02 2.741585992000000083e+00 0.000000000000000000e+00 3.710076000000000346e-02 6.805960899999999314e-02 2.791918942000000126e+00
2.802468376000000205e+00 0.000000000000000000e+00 0.000000000000000000e+00 -3.409663400000000066e-02 2.741585992000000083e+00 0.000000000000000000e+00 3.710076000000000346e-02 6.805960899999999314e-02 2.791918942000000126e+00
2.794267157999999807e+00 0.000000000000000000e+00 0.000000000000000000e+00 7.445205000000000573e-02 2.804328802000000120e+00 0.000000000000000000e+00 -1.161986299999999937e-02 5.354634900000000003e-02 2.783204395999999914e+00
2.794267157999999807e+00 0.000000000000000000e+00 0.000000000000000000e+00 7.445205000000000573e-02 2.804328802000000120e+00 0.000000000000000000e+00 -1.161986299999999937e-02 5.354634900000000003e-02 2.783204395999999914e+00
2.794267157999999807e+00 0.000000000000000000e+00 0.000000000000000000e+00 7.445205000000000573e-02 2.804328802000000120e+00 0.000000000000000000e+00 -1.161986299999999937e-02 5.354634900000000003e-02 2.783204395999999914e+00
2.794267157999999807e+00 0.000000000000000000e+00 0.000000000000000000e+00 7.445205000000000573e-02 2.804328802000000120e+00 0.000000000000000000e+00 -1.161986299999999937e-02 5.354634900000000003e-02 2.783204395999999914e+00
2.794267157999999807e+00 0.000000000000000000e+00 0.000000000000000000e+00 7.445205000000000573e-02 2.804328802000000120e+00 0.000000000000000000e+00 -1.161986299999999937e-02 5.354634900000000003e-02 2.783204395999999914e+00
2.828937631000000064e+00 0.000000000000000000e+00 0.000000000000000000e+00 -1.672461500000000170e-02 2.709010243999999901e+00 0.000000000000000000e+00 -2.012446999999999847e-02 -7.039629099999999973e-02 2.770665608999999918e+00
2.828937631000000064e+00 0.000000000000000000e+00 0.000000000000000000e+00 -1.672461500000000170e-02 2.709010243999999901e+00 0.000000000000000000e+00 -2.012446999999999847e-02 -7.039629099999999973e-02 2.770665608999999918e+00
2.828937631000000064e+00 0.000000000000000000e+00 0.000000000000000000e+00 -1.672461500000000170e-02 2.709010243999999901e+00 0.000000000000000000e+00 -2.012446999999999847e-02 -7.039629099999999973e-02 2.770665608999999918e+00
2.828937631000000064e+00 0.000000000000000000e+00 0.000000000000000000e+00 -1.672461500000000170e-02 2.709010243999999901e+00 0.000000000000000000e+00 -2.012446999999999847e-02 -7.039629099999999973e-02 2.770665608999999918e+00
2.828937631000000064e+00 0.000000000000000000e+00 0.000000000000000000e+00 -1.672461500000000170e-02 2.709010243999999901e+00 0.000000000000000000e+00 -2.012446999999999847e-02 -7.039629099999999973e-02 2.770665608999999918e+00
2.833550235000000139e+00 0.000000000000000000e+00 0.000000000000000000e+00 7.853758499999999310e-02 2.801914661000000084e+00 0.000000000000000000e+00 7.758289899999999684e-02 3.554350500000000301e-02 2.816664915000000047e+00
2.833550235000000139e+00 0.000000000000000000e+00 0.000000000000000000e+00 7.853758499999999310e-02 2.801914661000000084e+00 0.000000000000000000e+00 7.758289899999999684e-02 3.554350500000000301e-02 2.816664915000000047e+00
2.833550235000000139e+00 0.000000000000000000e+00 0.000000000000000000e+00 7.853758499999999310e-02 2.801914661000000084e+00 0.000000000000000000e+00 7.758289899999999684e-02 3.554350500000000301e-02 2.816664915000000047e+00
2.833550235000000139e+00 0.000000000000000000e+00 0.000000000000000000e+00 7.853758499999999310e-02 2.801914661000000084e+00 0.000000000000000000e+00 7.758289899999999684e-02 3.554350500000000301e-02 2.816664915000000047e+00
2.833550235000000139e+00 0.000000000000000000e+00 0.000000000000000000e+00 7.853758499999999310e-02 2.801914661000000084e+00 0.000000000000000000e+00 7.758289899999999684e-02 3.554350500000000301e-02 2.816664915000000047e+00
2.814818786000000017e+00 0.000000000000000000e+00 0.000000000000000000e+00 -2.409371100000000029e-02 2.834527818999999838e+00 0.000000000000000000e+00 1.871874200000000002e-02 -4.502195900000000028e-02 2.725862563999999821e+00
2.814818786000000017e+00 0.000000000000000000e+00 0.000000000000000000e+00 -2.409371100000000029e-02 2.834527818999999838e+00 0.000000000000000000e+00 1.871874200000000002e-02 -4.502195900000000028e-02 2.725862563999999821e+00
2.814818786000000017e+00 0.000000000000000000e+00 0.000000000000000000e+00 -2.409371100000000029e-02 2.834527818999999838e+00 0.000000000000000000e+00 1.871874200000000002e-02 -4.502195900000000028e-02 2.725862563999999821e+00
2.814818786000000017e+00 0.000000000000000000e+00 0.000000000000000000e+00 -2.409371100000000029e-02 2.834527818999999838e+00 0.000000000000000000e+00 1.871874200000000002e-02 -4.502195900000000028e-02 2.725862563999999821e+00
2.814818786000000017e+00 0.000000000000000000e+00 0.000000000000000000e+00 -2.409371100000000029e-02 2.834527818999999838e+00 0.000000000000000000e+00 1.871874200000000002e-02 -4.502195900000000028e-02 2.725862563999999821e+00
2.776771021000000061e+00 0.000000000000000000e+00 0.000000000000000000e+00 -1.552288800000000031e-02 2.741540633000000060e+00 0.000000000000000000e+00 2.310254800000000053e-02 -8.252946899999999419e-02 2.698245952000000170e+00
2.776771021000000061e+00 0.000000000000000000e+00 0.000000000000000000e+00 -1.552288800000000031e-02 2.741540633000000060e+00 0.000000000000000000e+00 2.310254800000000053e-02 -8.252946899999999419e-02 2.698245952000000170e+00
2.776771021000000061e+00 0.000000000000000000e+00 0.000000000000000000e+00 -1.552288800000000031e-02 2.741540633000000060e+00 0.000000000000000000e+00 2.310254800000000053e-02 -8.252946899999999419e-02 2.698245952000000170e+00
2.776771021000000061e+00 0.000000000000000000e+00 0.000000000000000000e+00 -1.552288800000000031e-02 2.741540633000000060e+00 0.000000000000000000e+00 2.310254800000000053e-02 -8.252946899999999419e-02 2.698245952000000170e+00
2.776771021000000061e+00 0.000000000000000000e+00 0.000000000000000000e+00 -1.552288800000000031e-02 2.741540633000000060e+00 0.000000000000000000e+00 2.310254800000000053e-02 -8.252946899999999419e-02 2.698245952000000170e+00
2.714018853999999870e+00 0.000000000000000000e+00 0.000000000000000000e+00 7.025312100000000171e-02 2.765840875999999948e+00 0.000000000000000000e+00 4.902850999999999737e-03 -4.316748399999999902e-02 2.836759229000000104e+00
2.714018853999999870e+00 0.000000000000000000e+00 0.000000000000000000e+00 7.025312100000000171e-02 2.765840875999999948e+00 0.000000000000000000e+00 4.902850999999999737e-03 -4.316748399999999902e-02 2.836759229000000104e+00
2.714018853999999870e+00 0.000000000000000000e+00 0.000000000000000000e+00 7.025312100000000171e-02 2.765840875999999948e+00 0.000000000000000000e+00 4.902850999999999737e-03 -4.316748399999999902e-02 2.836759229000000104e+00
2.714018853999999870e+00 0.000000000000000000e+00 0.000000000000000000e+00 7.025312100000000171e-02 2.765840875999999948e+00 0.000000000000000000e+00 4.902850999999999737e-03 -4.316748399999999902e-02 2.836759229000000104e+00
2.714018853999999870e+00 0.000000000000000000e+00 0.000000000000000000e+00 7.025312100000000171e-02 2.765840875999999948e+00 0.000000000000000000e+00 4.902850999999999737e-03 -4.316748399999999902e-02 2.836759229000000104e+00
2.863939047000000127e+00 0.000000000000000000e+00 0.000000000000000000e+00 0.000000000000000000e+00 2.863939047000000127e+00 0.000000000000000000e+00 0.000000000000000000e+00 0.000000000000000000e+00 2.863939047000000127e+00
2.863939047000000127e+00 0.000000000000000000e+00 0.000000000000000000e+00 0.000000000000000000e+00 2.863939047000000127e+00 0.000000000000000000e+00 0.000000000000000000e+00 0.000000000000000000e+00 2.863939047000000127e+00
2.863939047000000127e+00 0.000000000000000000e+00 0.000000000000000000e+00 0.000000000000000000e+00 2.863939047000000127e+00 0.000000000000000000e+00 0.000000000000000000e+00 0.000000000000000000e+00 2.863939047000000127e+00
2.863939047000000127e+00 0.000000000000000000e+00 0.000000000000000000e+00 0.000000000000000000e+00 2.863939047000000127e+00 0.000000000000000000e+00 0.000000000000000000e+00 0.000000000000000000e+00 2.863939047000000127e+00
2.863939047000000127e+00 0.000000000000000000e+00 0.000000000000000000e+00 0.000000000000000000e+00 2.863939047000000127e+00 0.000000000000000000e+00 0.000000000000000000e+00 0.000000000000000000e+00 2.863939047000000127e+00
2.830361095999999854e+00 0.000000000000000000e+00 0.000000000000000000e+00 -5.256132899999999691e-02 2.846025159999999943e+00 0.000000000000000000e+00 -2.274378499999999900e-02 2.363301099999999891e-02 2.926468188999999942e+00
2.830361095999999854e+00 0.000000000000000000e+00 0.000000000000000000e+00 -5.256132899999999691e-02 2.846025159999999943e+00 0.000000000000000000e+00 -2.274378499999999900e-02 2.363301099999999891e-02 2.926468188999999942e+00
2.830361095999999854e+00 0.000000000000000000e+00 0.000000000000000000e+00 -5.256132899999999691e-02 2.846025159999999943e+00 0.000000000000000000e+00 -2.274378499999999900e-02 2.363301099999999891e-02 2.926468188999999942e+00
2.830361095999999854e+00 0.000000000000000000e+00 0.000000000000000000e+00 -5.256132899999999691e-02 2.846025159999999943e+00 0.000000000000000000e+00 -2.274378499999999900e-02 2.363301099999999891e-02 2.926468188999999942e+00
2.830361095999999854e+00 0.000000000000000000e+00 0.000000000000000000e+00 -5.256132899999999691e-02 2.846025159999999943e+00 0.000000000000000000e+00 -2.274378499999999900e-02 2.363301099999999891e-02 2.926468188999999942e+00
2.841518068000000063e+00 0.000000000000000000e+00 0.000000000000000000e+00 -3.975793999999999856e-02 2.911366339999999830e+00 0.000000000000000000e+00 -1.136910499999999914e-02 -6.777073499999999862e-02 2.812543268000000207e+00
2.841518068000000063e+00 0.000000000000000000e+00 0.000000000000000000e+00 -3.975793999999999856e-02 2.911366339999999830e+00 0.000000000000000000e+00 -1.136910499999999914e-02 -6.777073499999999862e-02 2.812543268000000207e+00
2.841518068000000063e+00 0.000000000000000000e+00 0.000000000000000000e+00 -3.975793999999999856e-02 2.911366339999999830e+00 0.000000000000000000e+00 -1.136910499999999914e-02 -6.777073499999999862e-02 2.812543268000000207e+00
2.841518068000000063e+00 0.000000000000000000e+00 0.000000000000000000e+00 -3.975793999999999856e-02 2.911366339999999830e+00 0.000000000000000000e+00 -1.136910499999999914e-02 -6.777073499999999862e-02 2.812543268000000207e+00
2.841518068000000063e+00 0.000000000000000000e+00 0.000000000000000000e+00 -3.975793999999999856e-02 2.911366339999999830e+00 0.000000000000000000e+00 -1.136910499999999914e-02 -6.777073499999999862e-02 2.812543268000000207e+00
2.809179223000000114e+00 0.000000000000000000e+00 0.000000000000000000e+00 2.151587799999999870e-02 2.939614627000000091e+00 0.000000000000000000e+00 -6.531397999999999371e-02 2.123802300000000171e-02 2.947708973000000121e+00
2.809179223000000114e+00 0.000000000000000000e+00 0.000000000000000000e+00 2.151587799999999870e-02 2.939614627000000091e+00 0.000000000000000000e+00 -6.531397999999999371e-02 2.123802300000000171e-02 2.947708973000000121e+00
2.809179223000000114e+00 0.000000000000000000e+00 0.000000000000000000e+00 2.151587799999999870e-02 2.939614627000000091e+00 0.000000000000000000e+00 -6.531397999999999371e-02 2.123802300000000171e-02 2.947708973000000121e+00
2.809179223000000114e+00 0.000000000000000000e+00 0.000000000000000000e+00 2.151587799999999870e-02 2.939614627000000091e+00 0.000000000000000000e+00 -6.531397999999999371e-02 2.123802300000000171e-02 2.947708973000000121e+00
2.809179223000000114e+00 0.000000000000000000e+00 0.000000000000000000e+00 2.151587799999999870e-02 2.939614627000000091e+00 0.000000000000000000e+00 -6.531397999999999371e-02 2.123802300000000171e-02 2.947708973000000121e+00
2.911150200999999882e+00 0.000000000000000000e+00 0.000000000000000000e+00 -3.981389999999999907e-04 2.882312011999999868e+00 0.000000000000000000e+00 -4.915961399999999731e-02 -4.996384799999999821e-02 2.824425876999999918e+00
2.911150200999999882e+00 0.000000000000000000e+00 0.000000000000000000e+00 -3.981389999999999907e-04 2.882312011999999868e+00 0.000000000000000000e+00 -4.915961399999999731e-02 -4.996384799999999821e-02 2.824425876999999918e+00
2.911150200999999882e+00 0.000000000000000000e+00 0.000000000000000000e+00 -3.981389999999999907e-04 2.882312011999999868e+00 0.000000000000000000e+00 -4.915961399999999731e-02 -4.996384799999999821e-02 2.824425876999999918e+00
2.911150200999999882e+00 0.000000000000000000e+00 0.000000000000000000e+00 -3.981389999999999907e-04 2.882312011999999868e+00 0.000000000000000000e+00 -4.915961399999999731e-02 -4.996384799999999821e-02 2.824425876999999918e+00
2.911150200999999882e+00 0.000000000000000000e+00 0.000000000000000000e+00 -3.981389999999999907e-04 2.882312011999999868e+00 0.000000000000000000e+00 -4.915961399999999731e-02 -4.996384799999999821e-02 2.824425876999999918e+00
2.842136066000000127e+00 0.000000000000000000e+00 0.000000000000000000e+00 -4.571149900000000266e-02 2.817031463000000180e+00 0.000000000000000000e+00 5.629683299999999752e-02 -1.449640999999999994e-03 2.839504686999999805e+00
2.842136066000000127e+00 0.000000000000000000e+00 0.000000000000000000e+00 -4.571149900000000266e-02 2.817031463000000180e+00 0.000000000000000000e+00 5.629683299999999752e-02 -1.449640999999999994e-03 2.839504686999999805e+00
2.842136066000000127e+00 0.000000000000000000e+00 0.000000000000000000e+00 -4.571149900000000266e-02 2.817031463000000180e+00 0.000000000000000000e+00 5.629683299999999752e-02 -1.449640999999999994e-03 2.839504686999999805e+00
2.842136066000000127e+00 0.000000000000000000e+00 0.000000000000000000e+00 -4.571149900000000266e-02 2.817031463000000180e+00 0.000000000000000000e+00 5.629683299999999752e-02 -1.449640999999999994e-03 2.839504686999999805e+00
2.842136066000000127e+00 0.000000000000000000e+00 0.000000000000000000e+00 -4.571149900000000266e-02 2.817031463000000180e+00 0.000000000000000000e+00 5.629683299999999752e-02 -1.449640999999999994e-03 2.839504686999999805e+00
2.787972154999999841e+00 0.000000000000000000e+00 0.000000000000000000e+00 -5.559605299999999944e-02 2.831153667999999790e+00 0.000000000000000000e+00 -9.714571999999999444e-03 -3.327324400000000043e-02 2.828744796000000061e+00
2.787972154999999841e+00 0.000000000000000000e+00 0.000000000000000000e+00 -5.559605299999999944e-02 2.831153667999999790e+00 0.000000000000000000e+00 -9.714571999999999444e-03 -3.327324400000000043e-02 2.828744796000000061e+00
2.787972154999999841e+00 0.000000000000000000e+00 0.000000000000000000e+00 -5.559605299999999944e-02 2.831153667999999790e+00 0.000000000000000000e+00 -9.714571999999999444e-03 -3.327324400000000043e-02 2.828744796000000061e+00
2.787972154999999841e+00 0.000000000000000000e+00 0.000000000000000000e+00 -5.559605299999999944e-02 2.831153667999999790e+00 0.000000000000000000e+00 -9.714571999999999444e-03 -3.327324400000000043e-02 2.828744796000000061e+00
2.787972154999999841e+00 0.000000000000000000e+00 0.000000000000000000e+00 -5.559605299999999944e-02 2.831153667999999790e+00 0.000000000000000000e+00 -9.714571999999999444e-03 -3.327324400000000043e-02 2.828744796000000061e+00
2.907250095999999839e+00 0.000000000000000000e+00 0.000000000000000000e+00 -5.810059999999999704e-03 2.830865513000000000e+00 0.000000000000000000e+00 -4.596697200000000177e-02 -5.973511900000000319e-02 2.884674352000000219e+00
2.907250095999999839e+00 0.000000000000000000e+00 0.000000000000000000e+00 -5.810059999999999704e-03 2.830865513000000000e+00 0.000000000000000000e+00 -4.596697200000000177e-02 -5.973511900000000319e-02 2.884674352000000219e+00
2.907250095999999839e+00 0.000000000000000000e+00 0.000000000000000000e+00 -5.810059999999999704e-03 2.830865513000000000e+00 0.000000000000000000e+00 -4.596697200000000177e-02 -5.973511900000000319e-02 2.884674352000000219e+00
2.907250095999999839e+00 0.000000000000000000e+00 0.000000000000000000e+00 -5.810059999999999704e-03 2.830865513000000000e+00 0.000000000000000000e+00 -4.596697200000000177e-02 -5.973511900000000319e-02 2.884674352000000219e+00
2.907250095999999839e+00 0.000000000000000000e+00 0.000000000000000000e+00 -5.810059999999999704e-03 2.830865513000000000e+00 0.000000000000000000e+00 -4.596697200000000177e-02 -5.973511900000000319e-02 2.884674352000000219e+00
2.837087675999999892e+00 0.000000000000000000e+00 0.000000000000000000e+00 -3.066208499999999865e-02 2.939285583000000202e+00 0.000000000000000000e+00 -7.198393299999999995e-02 -3.730339099999999825e-02 2.819698869999999857e+00
2.837087675999999892e+00 0.000000000000000000e+00 0.000000000000000000e+00 -3.066208499999999865e-02 2.939285583000000202e+00 0.000000000000000000e+00 -7.198393299999999995e-02 -3.730339099999999825e-02 2.819698869999999857e+00
2.837087675999999892e+00 0.000000000000000000e+00 0.000000000000000000e+00 -3.066208499999999865e-02 2.939285583000000202e+00 0.000000000000000000e+00 -7.198393299999999995e-02 -3.730339099999999825e-02 2.819698869999999857e+00
2.837087675999999892e+00 0.000000000000000000e+00 0.000000000000000000e+00 -3.066208499999999865e-02 2.939285583000000202e+00 0.000000000000000000e+00 -7.198393299999999995e-02 -3.730339099999999825e-02 2.819698869999999857e+00
2.837087675999999892e+00 0.000000000000000000e+00 0.000000000000000000e+00 -3.066208499999999865e-02 2.939285583000000202e+00 0.000000000000000000e+00 -7.198393299999999995e-02 -3.730339099999999825e-02 2.819698869999999857e+00
2.842791286999999834e+00 0.000000000000000000e+00 0.000000000000000000e+00 7.683835999999999444e-02 2.948980988000000192e+00 0.000000000000000000e+00 -7.684975300000000675e-02 2.288940399999999861e-02 2.849098874000000059e+00
2.842791286999999834e+00 0.000000000000000000e+00 0.000000000000000000e+00 7.683835999999999444e-02 2.948980988000000192e+00 0.000000000000000000e+00 -7.684975300000000675e-02 2.288940399999999861e-02 2.849098874000000059e+00
2.842791286999999834e+00 0.000000000000000000e+00 0.000000000000000000e+00 7.683835999999999444e-02 2.948980988000000192e+00 0.000000000000000000e+00 -7.684975300000000675e-02 2.288940399999999861e-02 2.849098874000000059e+00
2.842791286999999834e+00 0.000000000000000000e+00 0.000000000000000000e+00 7.683835999999999444e-02 2.948980988000000192e+00 0.000000000000000000e+00 -7.684975300000000675e-02 2.288940399999999861e-02 2.849098874000000059e+00
2.842791286999999834e+00 0.000000000000000000e+00 0.000000000000000000e+00 7.683835999999999444e-02 2.948980988000000192e+00 0.000000000000000000e+00 -7.684975300000000675e-02 2.288940399999999861e-02 2.849098874000000059e+00
2.949857218000000003e+00 0.000000000000000000e+00 0.000000000000000000e+00 0.000000000000000000e+00 2.949857218000000003e+00 0.000000000000000000e+00 0.000000000000000000e+00 0.000000000000000000e+00 2.949857218000000003e+00
2.949857218000000003e+00 0.000000000000000000e+00 0.000000000000000000e+00 0.000000000000000000e+00 2.949857218000000003e+00 0.000000000000000000e+00 0.000000000000000000e+00 0.000000000000000000e+00 2.949857218000000003e+00
2.949857218000000003e+00 0.000000000000000000e+00 0.000000000000000000e+00 0.000000000000000000e+00 2.949857218000000003e+00 0.000000000000000000e+00 0.000000000000000000e+00 0.000000000000000000e+00 2.949857218000000003e+00
2.949857218000000003e+00 0.000000000000000000e+00 0.000000000000000000e+00 0.000000000000000000e+00 2.949857218000000003e+00 0.000000000000000000e+00 0.000000000000000000e+00 0.000000000000000000e+00 2.949857218000000003e+00
2.949857218000000003e+00 0.000000000000000000e+00 0.000000000000000000e+00 0.000000000000000000e+00 2.949857218000000003e+00 0.000000000000000000e+00 0.000000000000000000e+00 0.000000000000000000e+00 2.949857218000000003e+00
2.969064431000000059e+00 0.000000000000000000e+00 0.000000000000000000e+00 -2.069818699999999984e-02 3.019284343999999898e+00 0.000000000000000000e+00 -7.753789599999999504e-02 7.936926399999999493e-02 2.999386102999999970e+00
2.969064431000000059e+00 0.000000000000000000e+00 0.000000000000000000e+00 -2.069818699999999984e-02 3.019284343999999898e+00 0.000000000000000000e+00 -7.753789599999999504e-02 7.936926399999999493e-02 2.999386102999999970e+00
2.969064431000000059e+00 0.000000000000000000e+00 0.000000000000000000e+00 -2.069818699999999984e-02 3.019284343999999898e+00 0.000000000000000000e+00 -7.753789599999999504e-02 7.936926399999999493e-02 2.999386102999999970e+00
2.969064431000000059e+00 0.000000000000000000e+00 0.000000000000000000e+00 -2.069818699999999984e-02 3.019284343999999898e+00 0.000000000000000000e+00 -7.753789599999999504e-02 7.936926399999999493e-02 2.999386102999999970e+00
2.969064431000000059e+00 0.000000000000000000e+00 0.000000000000000000e+00 -2.069818699999999984e-02 3.019284343999999898e+00 0.000000000000000000e+00 -7.753789599999999504e-02 7.936926399999999493e-02 2.999386102999999970e+00
2.973161831000000088e+00 0.000000000000000000e+00 0.000000000000000000e+00 4.773600000000000239e-04 2.883645560000000163e+00 0.000000000000000000e+00 -1.673068800000000050e-02 -7.055060700000000129e-02 2.915756487999999980e+00
2.973161831000000088e+00 0.000000000000000000e+00 0.000000000000000000e+00 4.773600000000000239e-04 2.883645560000000163e+00 0.000000000000000000e+00 -1.673068800000000050e-02 -7.055060700000000129e-02 2.915756487999999980e+00
2.973161831000000088e+00 0.000000000000000000e+00 0.000000000000000000e+00 4.773600000000000239e-04 2.883645560000000163e+00 0.000000000000000000e+00 -1.673068800000000050e-02 -7.055060700000000129e-02 2.915756487999999980e+00
2.973161831000000088e+00 0.000000000000000000e+00 0.000000000000000000e+00 4.773600000000000239e-04 2.883645560000000163e+00 0.000000000000000000e+00 -1.673068800000000050e-02 -7.055060700000000129e-02 2.915756487999999980e+00
2.973161831000000088e+00 0.000000000000000000e+00 0.000000000000000000e+00 4.773600000000000239e-04 2.883645560000000163e+00 0.000000000000000000e+00 -1.673068800000000050e-02 -7.055060700000000129e-02 2.915756487999999980e+00
2.864070890999999897e+00 0.000000000000000000e+00 0.000000000000000000e+00 1.113220000000000008e-02 3.016679644999999965e+00 0.000000000000000000e+00 -8.655022399999999505e-02 -6.256491899999999662e-02 2.930378789000000150e+00
2.864070890999999897e+00 0.000000000000000000e+00 0.000000000000000000e+00 1.113220000000000008e-02 3.016679644999999965e+00 0.000000000000000000e+00 -8.655022399999999505e-02 -6.256491899999999662e-02 2.930378789000000150e+00
2.864070890999999897e+00 0.000000000000000000e+00 0.000000000000000000e+00 1.113220000000000008e-02 3.016679644999999965e+00 0.000000000000000000e+00 -8.655022399999999505e-02 -6.256491899999999662e-02 2.930378789000000150e+00
2.864070890999999897e+00 0.000000000000000000e+00 0.000000000000000000e+00 1.113220000000000008e-02 3.016679644999999965e+00 0.000000000000000000e+00 -8.655022399999999505e-02 -6.256491899999999662e-02 2.930378789000000150e+00
2.864070890999999897e+00 0.000000000000000000e+00 0.000000000000000000e+00 1.113220000000000008e-02 3.016679644999999965e+00 0.000000000000000000e+00 -8.655022399999999505e-02 -6.256491899999999662e-02 2.930378789000000150e+00
2.895091306999999947e+00 0.000000000000000000e+00 0.000000000000000000e+00 -3.232636400000000326e-02 3.030170377000000137e+00 0.000000000000000000e+00 -1.439637199999999929e-02 -7.817016100000000189e-02 2.953428618999999866e+00
2.895091306999999947e+00 0.000000000000000000e+00 0.000000000000000000e+00 -3.232636400000000326e-02 3.030170377000000137e+00 0.000000000000000000e+00 -1.439637199999999929e-02 -7.817016100000000189e-02 2.953428618999999866e+00
2.895091306999999947e+00 0.000000000000000000e+00 0.000000000000000000e+00 -3.232636400000000326e-02 3.030170377000000137e+00 0.000000000000000000e+00 -1.439637199999999929e-02 -7.817016100000000189e-02 2.953428618999999866e+00
2.895091306999999947e+00 0.000000000000000000e+00 0.000000000000000000e+00 -3.232636400000000326e-02 3.030170377000000137e+00 0.000000000000000000e+00 -1.439637199999999929e-02 -7.817016100000000189e-02 2.953428618999999866e+00
2.895091306999999947e+00 0.000000000000000000e+00 0.000000000000000000e+00 -3.232636400000000326e-02 3.030170377000000137e+00 0.000000000000000000e+00 -1.439637199999999929e-02 -7.817016100000000189e-02 2.953428618999999866e+00
2.952168508000000191e+00 0.000000000000000000e+00 0.000000000000000000e+00 -8.168226500000000390e-02 3.033672136999999935e+00 0.000000000000000000e+00 5.704837399999999892e-02 -1.146763100000000070e-02 2.959707041000000149e+00
2.952168508000000191e+00 0.000000000000000000e+00 0.000000000000000000e+00 -8.168226500000000390e-02 3.033672136999999935e+00 0.000000000000000000e+00 5.704837399999999892e-02 -1.146763100000000070e-02 2.959707041000000149e+00
2.952168508000000191e+00 0.000000000000000000e+00 0.000000000000000000e+00 -8.168226500000000390e-02 3.033672136999999935e+00 0.000000000000000000e+00 5.704837399999999892e-02 -1.146763100000000070e-02 2.959707041000000149e+00
2.952168508000000191e+00 0.000000000000000000e+00 0.000000000000000000e+00 -8.168226500000000390e-02 3.033672136999999935e+00 0.000000000000000000e+00 5.704837399999999892e-02 -1.146763100000000070e-02 2.959707041000000149e+00
2.952168508000000191e+00 0.000000000000000000e+00 0.000000000000000000e+00 -8.168226500000000390e-02 3.033672136999999935e+00 0.000000000000000000e+00 5.704837399999999892e-02 -1.146763100000000070e-02 2.959707041000000149e+00
2.998262845999999815e+00 0.000000000000000000e+00 0.000000000000000000e+00 -1.075940700000000035e-02 2.958362029999999976e+00 0.000000000000000000e+00 2.723339300000000157e-02 2.012541099999999930e-02 2.908295802000000041e+00
2.998262845999999815e+00 0.000000000000000000e+00 0.000000000000000000e+00 -1.075940700000000035e-02 2.958362029999999976e+00 0.000000000000000000e+00 2.723339300000000157e-02 2.012541099999999930e-02 2.908295802000000041e+00