0.000000000000000000e+00 0.000000000000000000e+00 0.000000000000000000e+00 1.389010000000000078e+00 1.389010000000000078e+00 1.389010000000000078e+00
2.776759999999999895e+00 2.999999999999999737e-04 3.400000000000000244e-04 1.390269999999999895e+00 1.388710000000000111e+00 1.388670000000000071e+00
2.775500000000000078e+00 5.999999999999999474e-04 6.800000000000000488e-04 1.391529999999999934e+00 1.388409999999999922e+00 1.388330000000000064e+00
2.774239999999999817e+00 9.100000000000000016e-04 1.020000000000000073e-03 1.392789999999999973e+00 1.388099999999999890e+00 1.387990000000000057e+00
2.772980000000000000e+00 1.209999999999999921e-03 1.369999999999999907e-03 1.394050000000000011e+00 1.387799999999999923e+00 1.387639999999999985e+00
2.421999999999999847e-02 2.796260000000000190e+00 8.899999999999999491e-04 1.397110000000000074e+00 1.434239999999999959e+00 1.416989999999999972e+00
7.882000000000000117e-02 2.862769999999999815e+00 2.834249999999999936e+00 1.397680000000000033e+00 1.434690000000000021e+00 1.418129999999999891e+00
7.825000000000000011e-02 2.862319999999999975e+00 2.833120000000000083e+00 1.398249999999999993e+00 1.435130000000000017e+00 1.419259999999999966e+00
7.767999999999999905e-02 2.861880000000000202e+00 2.831999999999999851e+00 1.398819999999999952e+00 1.435570000000000013e+00 1.420379999999999976e+00
2.795300000000000118e+00 2.861439999999999984e+00 2.830869999999999997e+00 1.399380000000000068e+00 1.436010000000000009e+00 1.421510000000000051e+00
2.745740000000000069e+00 2.841209999999999791e+00 3.129999999999999970e-03 1.355830000000000091e+00 1.461000000000000076e+00 1.411170000000000035e+00
2.744920000000000027e+00 2.840599999999999792e+00 3.989999999999999623e-03 1.356649999999999912e+00 1.461610000000000076e+00 1.410309999999999953e+00
2.744099999999999984e+00 2.839989999999999792e+00 4.850000000000000144e-03 1.357469999999999954e+00 1.462220000000000075e+00 1.409440000000000026e+00
2.743279999999999941e+00 2.839389999999999858e+00 5.720000000000000258e-03 1.358289999999999997e+00 1.462820000000000009e+00 1.408579999999999943e+00
2.742469999999999963e+00 2.838779999999999859e+00 6.570000000000000319e-03 1.359110000000000040e+00 1.463430000000000009e+00 1.407720000000000082e+00
2.833930000000000060e+00 6.937999999999999723e-02 2.785250000000000004e+00 1.409140000000000059e+00 1.403219999999999912e+00 1.390549999999999953e+00
2.833349999999999813e+00 7.045999999999999486e-02 2.785800000000000054e+00 1.409710000000000019e+00 1.402139999999999942e+00 1.389999999999999902e+00
2.832780000000000076e+00 7.152999999999999636e-02 2.786350000000000104e+00 1.410290000000000044e+00 1.401070000000000038e+00 1.389450000000000074e+00
2.832209999999999894e+00 7.259999999999999787e-02 2.786910000000000220e+00 1.410849999999999937e+00 1.399999999999999911e+00 1.388900000000000023e+00
2.831649999999999778e+00 7.366999999999999937e-02 2.787459999999999827e+00 1.411410000000000053e+00 1.398930000000000007e+00 1.388349999999999973e+00
2.867300000000000182e+00 2.798909999999999787e+00 1.000000000000000082e-05 1.431000000000000050e+00 1.429070000000000062e+00 1.386439999999999895e+00
2.855649999999999800e+00 2.851170000000000204e+00 2.782830000000000137e+00 1.431030000000000024e+00 1.430360000000000076e+00 1.386830000000000007e+00
2.855620000000000047e+00 2.849889999999999812e+00 2.782449999999999868e+00 1.431059999999999999e+00 1.431640000000000024e+00 1.387210000000000054e+00
2.855599999999999916e+00 2.848609999999999864e+00 2.782059999999999977e+00 1.431089999999999973e+00 1.432919999999999972e+00 1.387590000000000101e+00
2.855570000000000164e+00 2.847339999999999982e+00 2.781680000000000152e+00 1.431119999999999948e+00 1.434190000000000076e+00 1.387979999999999992e+00
2.827669999999999906e+00 2.900000000000000017e-04 1.910000000000000022e-03 1.400209999999999955e+00 1.319989999999999997e+00 1.388940000000000063e+00
2.811139999999999972e+00 2.708819999999999784e+00 6.700000000000000226e-04 1.400009999999999977e+00 1.320470000000000033e+00 1.390179999999999971e+00
2.791220000000000034e+00 2.637939999999999952e+00 2.770099999999999785e+00 1.399820000000000064e+00 1.320959999999999912e+00 1.391410000000000036e+00
2.791409999999999947e+00 2.637459999999999916e+00 2.768870000000000164e+00 1.399620000000000086e+00 1.321439999999999948e+00 1.392640000000000100e+00
2.791609999999999925e+00 2.636969999999999814e+00 2.767640000000000100e+00 1.399420000000000108e+00 1.321919999999999984e+00 1.393869999999999942e+00
7.835999999999999910e-02 3.572000000000000175e-02 2.815020000000000078e+00 1.499060000000000059e+00 1.417740000000000000e+00 1.409030000000000005e+00
1.572999999999999954e-01 2.837229999999999919e+00 2.816230000000000011e+00 1.498660000000000103e+00 1.418139999999999956e+00 1.407810000000000006e+00
8.011999999999999678e-02 2.801289999999999836e+00 7.900000000000000121e-04 1.498259999999999925e+00 1.418539999999999912e+00 1.406590000000000007e+00
8.051999999999999436e-02 2.800899999999999945e+00 2.000000000000000042e-03 1.497859999999999969e+00 1.418940000000000090e+00 1.405380000000000074e+00
8.092000000000000581e-02 2.800499999999999989e+00 3.220000000000000206e-03 1.497460000000000013e+00 1.419329999999999981e+00 1.404160000000000075e+00
-5.199999999999999761e-03 2.789340000000000153e+00 2.725709999999999855e+00 1.402050000000000018e+00 1.399229999999999974e+00 1.363949999999999996e+00
2.833000000000000185e+00 -4.408999999999999725e-02 2.725459999999999994e+00 1.402770000000000072e+00 1.398130000000000095e+00 1.364190000000000014e+00
2.832269999999999843e+00 -4.297999999999999737e-02 2.725210000000000132e+00 1.403489999999999904e+00 1.397019999999999929e+00 1.364440000000000097e+00
2.831550000000000011e+00 -4.186999999999999750e-02 2.724969999999999892e+00 1.404209999999999958e+00 1.395920000000000050e+00 1.364689999999999959e+00
2.830830000000000179e+00 -4.077000000000000068e-02 2.724720000000000031e+00 1.404930000000000012e+00 1.394810000000000105e+00 1.364940000000000042e+00
2.372000000000000150e-02 -8.135000000000000564e-02 2.697049999999999947e+00 1.391769999999999952e+00 1.329420000000000046e+00 1.347439999999999971e+00
2.309999999999999901e-02 -8.219999999999999529e-02 2.696229999999999905e+00 1.392379999999999951e+00 1.330279999999999907e+00 1.348270000000000080e+00
2.783729999999999816e+00 2.658479999999999954e+00 2.695399999999999796e+00 1.393000000000000016e+00 1.331139999999999990e+00 1.349099999999999966e+00
2.783110000000000195e+00 2.657620000000000093e+00 2.694580000000000197e+00 1.393620000000000081e+00 1.331990000000000007e+00 1.349920000000000009e+00
2.782490000000000130e+00 2.656769999999999854e+00 2.693750000000000089e+00 1.394239999999999924e+00 1.332850000000000090e+00 1.350749999999999895e+00
2.784629999999999939e+00 2.717799999999999994e+00 2.830630000000000202e+00 1.396020000000000039e+00 1.365769999999999929e+00 1.417519999999999891e+00
2.785149999999999793e+00 2.716610000000000191e+00 2.830309999999999881e+00 1.395499999999999963e+00 1.366950000000000109e+00 1.417850000000000055e+00
2.785680000000000156e+00 2.715430000000000010e+00 2.829979999999999940e+00 1.394970000000000043e+00 1.368139999999999912e+00 1.418169999999999931e+00
2.786210000000000075e+00 2.714249999999999829e+00 2.829660000000000064e+00 1.394439999999999902e+00 1.369310000000000027e+00 1.418500000000000094e+00
2.786739999999999995e+00 2.713080000000000158e+00 2.829340000000000188e+00 1.393909999999999982e+00 1.370489999999999986e+00 1.418819999999999970e+00
0.000000000000000000e+00 0.000000000000000000e+00 0.000000000000000000e+00 1.431969999999999965e+00 1.431969999999999965e+00 1.431969999999999965e+00
5.699999999999999772e-04 1.209999999999999921e-03 2.863900000000000112e+00 1.431400000000000006e+00 1.430760000000000032e+00 1.432010000000000005e+00
1.139999999999999954e-03 2.429999999999999868e-03 2.863849999999999785e+00 1.430830000000000046e+00 1.429540000000000033e+00 1.432060000000000111e+00
1.709999999999999932e-03 3.640000000000000006e-03 2.863809999999999967e+00 1.430260000000000087e+00 1.428330000000000100e+00 1.432099999999999929e+00
2.279999999999999909e-03 4.850000000000000144e-03 2.863760000000000083e+00 1.429689999999999905e+00 1.427119999999999944e+00 1.432139999999999969e+00
6.470000000000000057e-03 1.469999999999999953e-03 7.349999999999999763e-03 1.377950000000000008e+00 1.428590000000000027e+00 1.459870000000000001e+00
5.449999999999999983e-03 6.999999999999999929e-04 6.919999999999999936e-03 1.378970000000000029e+00 1.429359999999999964e+00 1.460299999999999931e+00
-4.812999999999999917e-02 2.845959999999999823e+00 6.490000000000000109e-03 1.379990000000000050e+00 1.430120000000000058e+00 1.460730000000000084e+00
-4.914999999999999925e-02 2.845190000000000108e+00 6.060000000000000282e-03 1.381010000000000071e+00 1.430889999999999995e+00 1.461160000000000014e+00
-5.016999999999999932e-02 2.844419999999999948e+00 5.619999999999999996e-03 1.382030000000000092e+00 1.431659999999999933e+00 1.461600000000000010e+00
-1.021999999999999992e-02 -6.192000000000000282e-02 2.811510000000000176e+00 1.397790000000000088e+00 1.419799999999999951e+00 1.403890000000000082e+00
6.599999999999999964e-04 5.360000000000000181e-03 1.100000000000000039e-04 1.398279999999999967e+00 1.420299999999999896e+00 1.402740000000000098e+00
1.800000000000000113e-04 4.859999999999999737e-03 1.260000000000000052e-03 1.398770000000000069e+00 1.420789999999999997e+00 1.401589999999999892e+00
2.841209999999999791e+00 4.369999999999999753e-03 2.409999999999999816e-03 1.399250000000000105e+00 1.421289999999999942e+00 1.400439999999999907e+00
2.840730000000000199e+00 3.870000000000000176e-03 3.550000000000000204e-03 1.399729999999999919e+00 1.421790000000000109e+00 1.399299999999999988e+00
-5.958999999999999714e-02 2.545999999999999999e-02 2.942039999999999988e+00 1.376700000000000035e+00 1.479789999999999939e+00 1.471109999999999918e+00
-6.069999999999999701e-02 2.622000000000000025e-02 2.941949999999999843e+00 1.377799999999999914e+00 1.479030000000000067e+00 1.471209999999999907e+00
-6.180000000000000077e-02 2.698000000000000051e-02 2.941860000000000142e+00 1.378910000000000080e+00 1.478280000000000038e+00 1.471300000000000052e+00
-6.290999999999999370e-02 2.774000000000000077e-02 2.941769999999999996e+00 1.380009999999999959e+00 1.477519999999999945e+00 1.471389999999999976e+00
-6.401999999999999358e-02 2.849000000000000143e-02 2.941679999999999851e+00 1.381119999999999903e+00 1.476769999999999916e+00 1.471479999999999899e+00
2.860409999999999897e+00 2.830769999999999786e+00 2.821169999999999956e+00 1.431079999999999908e+00 1.416150000000000020e+00 1.411659999999999915e+00
2.860780000000000101e+00 2.829509999999999970e+00 2.820879999999999832e+00 1.430719999999999992e+00 1.417410000000000059e+00 1.411950000000000038e+00
2.861139999999999795e+00 2.828260000000000218e+00 2.820600000000000218e+00 1.430360000000000076e+00 1.418670000000000098e+00 1.412239999999999940e+00
2.861499999999999932e+00 2.826999999999999957e+00 2.820310000000000095e+00 1.429990000000000094e+00 1.419929999999999914e+00 1.412519999999999998e+00
-4.929000000000000048e-02 2.825740000000000141e+00 2.820019999999999971e+00 1.429629999999999956e+00 1.421180000000000110e+00 1.412809999999999899e+00
2.849209999999999798e+00 2.809719999999999995e+00 2.837369999999999948e+00 1.428029999999999911e+00 1.405219999999999914e+00 1.417070000000000052e+00
2.849779999999999980e+00 2.810939999999999994e+00 2.837320000000000064e+00 1.427459999999999951e+00 1.404009999999999980e+00 1.417110000000000092e+00
2.850350000000000161e+00 2.812149999999999928e+00 2.837279999999999802e+00 1.426879999999999926e+00 1.402789999999999981e+00 1.417159999999999975e+00
2.850929999999999964e+00 2.813359999999999861e+00 2.837239999999999984e+00 1.426309999999999967e+00 1.401580000000000048e+00 1.417200000000000015e+00
2.851500000000000146e+00 2.814579999999999860e+00 2.837190000000000101e+00 1.425740000000000007e+00 1.400369999999999893e+00 1.417240000000000055e+00
-5.429999999999999931e-03 -2.711999999999999827e-02 2.826690000000000147e+00 1.357799999999999896e+00 1.398039999999999949e+00 1.410220000000000029e+00
-4.789999999999999987e-03 -2.613000000000000045e-02 2.827319999999999833e+00 1.357159999999999922e+00 1.397040000000000060e+00 1.409599999999999964e+00
-4.150000000000000043e-03 -2.513999999999999915e-02 2.827939999999999898e+00 1.356519999999999948e+00 1.396050000000000013e+00 1.408970000000000056e+00
-3.520000000000000125e-03 -2.415000000000000133e-02 2.828570000000000029e+00 1.355890000000000040e+00 1.395059999999999967e+00 1.408349999999999991e+00
6.830000000000000134e-03 1.010999999999999920e-02 4.400000000000000157e-04 1.355259999999999909e+00 1.394079999999999986e+00 1.407729999999999926e+00
2.861069999999999780e+00 -5.884999999999999953e-02 2.883220000000000116e+00 1.427750000000000075e+00 1.385629999999999917e+00 1.442399999999999904e+00
-5.127999999999999919e-02 2.770980000000000221e+00 2.882740000000000080e+00 1.427049999999999930e+00 1.386660000000000004e+00 1.442879999999999940e+00
-5.057999999999999996e-02 2.769950000000000134e+00 2.882260000000000044e+00 1.426339999999999941e+00 1.387699999999999934e+00 1.443359999999999976e+00
-4.986999999999999766e-02 2.768909999999999982e+00 2.881780000000000008e+00 1.425640000000000018e+00 1.388730000000000020e+00 1.443840000000000012e+00
-4.916000000000000231e-02 2.767879999999999896e+00 2.881310000000000038e+00 1.424930000000000030e+00 1.389760000000000106e+00 1.444320000000000048e+00
2.832460000000000200e+00 4.709999999999999777e-03 6.380000000000000254e-03 1.366640000000000077e+00 1.442490000000000050e+00 1.410039999999999960e+00
2.831630000000000091e+00 3.660000000000000059e-03 6.510000000000000162e-03 1.367459999999999898e+00 1.443540000000000045e+00 1.409899999999999931e+00
2.830799999999999983e+00 2.599999999999999881e-03 6.649999999999999661e-03 1.368290000000000006e+00 1.444600000000000106e+00 1.409759999999999902e+00
2.829979999999999940e+00 1.549999999999999946e-03 6.779999999999999569e-03 1.369110000000000049e+00 1.445650000000000102e+00 1.409629999999999939e+00
2.829159999999999897e+00 4.899999999999999842e-04 6.919999999999999936e-03 1.369930000000000092e+00 1.446709999999999940e+00 1.409499999999999975e+00
2.836500000000000021e+00 5.369999999999999774e-03 3.310000000000000008e-03 1.415629999999999944e+00 1.488799999999999901e+00 1.418109999999999982e+00
2.837619999999999809e+00 6.060000000000000282e-03 3.579999999999999849e-03 1.414509999999999934e+00 1.488110000000000044e+00 1.417839999999999989e+00
2.838729999999999976e+00 6.749999999999999924e-03 3.840000000000000097e-03 1.413399999999999990e+00 1.487419999999999964e+00 1.417580000000000062e+00
2.839850000000000207e+00 7.440000000000000432e-03 4.100000000000000346e-03 1.412279999999999980e+00 1.486730000000000107e+00 1.417319999999999913e+00
2.840959999999999930e+00 8.130000000000000074e-03 4.360000000000000160e-03 1.411170000000000035e+00 1.486050000000000093e+00 1.417059999999999986e+00
0.000000000000000000e+00 0.000000000000000000e+00 0.000000000000000000e+00 1.474930000000000074e+00 1.474930000000000074e+00 1.474930000000000074e+00
2.948999999999999844e+00 5.199999999999999544e-04 2.948960000000000026e+00 1.475780000000000092e+00 1.474409999999999998e+00 1.475819999999999910e+00
2.948150000000000048e+00 1.030000000000000100e-03 2.948069999999999968e+00 1.476639999999999953e+00 1.473899999999999988e+00 1.476720000000000033e+00
2.947290000000000187e+00 1.549999999999999946e-03 2.947179999999999911e+00 1.477489999999999970e+00 1.473379999999999912e+00 1.477610000000000090e+00
2.946439999999999948e+00 2.069999999999999792e-03 2.946279999999999788e+00 1.478350000000000053e+00 1.472860000000000058e+00 1.478499999999999925e+00
2.891270000000000007e+00 7.981000000000000594e-02 2.998889999999999834e+00 1.431840000000000002e+00 1.547819999999999974e+00 1.494350000000000067e+00
2.890080000000000204e+00 8.043000000000000149e-02 2.998920000000000030e+00 1.433030000000000026e+00 1.547199999999999909e+00 1.494320000000000093e+00
2.888889999999999958e+00 8.104999999999999705e-02 2.998940000000000161e+00 1.434220000000000050e+00 1.546580000000000066e+00 1.494299999999999962e+00
2.887700000000000156e+00 8.167000000000000648e-02 2.998969999999999914e+00 1.435410000000000075e+00 1.545960000000000001e+00 1.494269999999999987e+00
2.886509999999999909e+00 8.229000000000000203e-02 2.998990000000000045e+00 1.436600000000000099e+00 1.545339999999999936e+00 1.494250000000000078e+00
2.972820000000000018e+00 1.800000000000000113e-04 4.000000000000000327e-05 1.476480000000000015e+00 1.402579999999999938e+00 1.462180000000000035e+00
2.971499999999999808e+00 6.000000000000000152e-05 2.500000000000000052e-04 1.477810000000000068e+00 1.402700000000000058e+00 1.461969999999999992e+00
2.970650000000000013e+00 2.883589999999999876e+00 4.499999999999999877e-04 1.479130000000000056e+00 1.402819999999999956e+00 1.461770000000000014e+00
2.969329999999999803e+00 2.883480000000000043e+00 6.599999999999999964e-04 1.480450000000000044e+00 1.402930000000000010e+00 1.461559999999999970e+00
2.968020000000000103e+00 2.883360000000000145e+00 8.700000000000000051e-04 1.481759999999999966e+00 1.403049999999999908e+00 1.461349999999999927e+00
-7.041000000000000036e-02 2.950759999999999827e+00 2.929510000000000058e+00 1.391440000000000010e+00 1.472830000000000084e+00 1.468779999999999974e+00
-6.941999999999999560e-02 2.951509999999999856e+00 2.929030000000000022e+00 1.390439999999999898e+00 1.472080000000000055e+00 1.469260000000000010e+00
-6.841999999999999471e-02 2.952259999999999884e+00 2.928539999999999921e+00 1.389450000000000074e+00 1.471330000000000027e+00 1.469740000000000046e+00
-6.743000000000000382e-02 2.953009999999999913e+00 2.928059999999999885e+00 1.388460000000000027e+00 1.470579999999999998e+00 1.470229999999999926e+00
-6.643999999999999906e-02 2.953759999999999941e+00 2.927579999999999849e+00 1.387459999999999916e+00 1.469829999999999970e+00 1.470709999999999962e+00
-1.216000000000000067e-02 -7.645000000000000406e-02 2.951220000000000176e+00 1.424120000000000053e+00 1.481279999999999930e+00 1.469880000000000075e+00
-1.318000000000000074e-02 -7.721000000000000085e-02 2.950800000000000090e+00 1.425140000000000073e+00 1.482050000000000090e+00 1.470310000000000006e+00
-1.418999999999999949e-02 -7.796999999999999764e-02 2.950369999999999937e+00 1.426150000000000029e+00 1.482809999999999961e+00 1.470730000000000093e+00
2.847550000000000026e+00 2.951439999999999841e+00 2.949939999999999785e+00 1.427170000000000050e+00 1.483570000000000055e+00 1.471160000000000023e+00
2.846540000000000070e+00 2.950680000000000192e+00 2.949510000000000076e+00 1.428180000000000005e+00 1.484329999999999927e+00 1.471589999999999954e+00
2.950070000000000192e+00 6.420000000000000359e-03 1.990000000000000015e-03 1.466050000000000075e+00 1.509560000000000013e+00 1.482390000000000096e+00
2.951290000000000191e+00 6.620000000000000016e-03 2.520000000000000104e-03 1.464839999999999920e+00 1.509360000000000035e+00 1.481859999999999955e+00
3.299999999999999982e-04 6.830000000000000134e-03 3.050000000000000194e-03 1.463619999999999921e+00 1.509149999999999991e+00 1.481330000000000036e+00
1.549999999999999946e-03 7.029999999999999791e-03 3.579999999999999849e-03 1.462409999999999988e+00 1.508950000000000014e+00 1.480799999999999894e+00
2.759999999999999867e-03 7.239999999999999908e-03 4.109999999999999938e-03 1.461200000000000054e+00 1.508739999999999970e+00 1.480269999999999975e+00
3.014279999999999848e+00 2.977959999999999940e+00 2.907849999999999824e+00 1.513370000000000104e+00 1.484750000000000014e+00 1.458620000000000028e+00
3.013079999999999981e+00 2.978229999999999933e+00 2.907309999999999839e+00 1.514559999999999906e+00 1.484480000000000022e+00 1.459160000000000013e+00
3.022650000000000059e+00 2.014000000000000165e-02 2.906759999999999788e+00 1.515749999999999931e+00 1.484210000000000029e+00 1.459710000000000063e+00
3.021459999999999813e+00 2.040000000000000147e-02 2.906219999999999803e+00 1.516939999999999955e+00 1.483940000000000037e+00 1.460250000000000048e+00
3.020270000000000010e+00 2.067000000000000087e-02 2.905679999999999819e+00 1.518129999999999979e+00 1.483680000000000110e+00 1.460790000000000033e+00
2.968280000000000030e+00 2.872630000000000017e+00 1.100000000000000039e-04 1.478809999999999958e+00 1.393639999999999990e+00 1.514920000000000044e+00
2.969209999999999905e+00 2.873590000000000089e+00 2.500000000000000052e-04 1.477880000000000082e+00 1.392679999999999918e+00 1.514780000000000015e+00
2.970139999999999780e+00 2.874550000000000161e+00 3.899999999999999929e-04 1.476949999999999985e+00 1.391729999999999912e+00 1.514639999999999986e+00
2.924619999999999997e+00 2.300000000000000070e-04 5.299999999999999807e-04 1.476029999999999953e+00 1.390770000000000062e+00 1.514499999999999957e+00
6.199999999999999999e-04 1.190000000000000085e-03 6.700000000000000226e-04 1.475100000000000078e+00 1.389809999999999990e+00 1.514359999999999928e+00
3.104270000000000085e+00 -5.430000000000000104e-02 3.002870000000000150e+00 1.596740000000000048e+00 1.435380000000000100e+00 1.503949999999999898e+00
3.105259999999999909e+00 -5.521999999999999825e-02 3.002889999999999837e+00 1.595760000000000067e+00 1.436290000000000067e+00 1.503929999999999989e+00
3.191500000000000004e+00 2.864980000000000082e+00 3.002909999999999968e+00 1.594770000000000021e+00 1.437200000000000033e+00 1.503910000000000080e+00
1.540900000000000047e-01 2.864069999999999894e+00 3.002930000000000099e+00 1.593790000000000040e+00 1.438109999999999999e+00 1.503889999999999949e+00
1.550799999999999956e-01 2.863160000000000149e+00 3.002949999999999786e+00 1.592799999999999994e+00 1.439019999999999966e+00 1.503859999999999975e+00
9.193999999999999395e-02 8.321000000000000618e-02 2.926550000000000207e+00 1.478180000000000049e+00 1.531300000000000106e+00 1.468779999999999974e+00
9.128000000000000003e-02 8.322999999999999843e-02 2.925380000000000091e+00 1.478839999999999932e+00 1.531269999999999909e+00 1.469940000000000024e+00
9.062000000000000610e-02 8.326000000000000068e-02 2.924220000000000041e+00 1.479500000000000037e+00 1.531239999999999934e+00 1.471109999999999918e+00
8.995999999999999830e-02 8.329000000000000292e-02 2.923059999999999992e+00 1.480159999999999920e+00 1.531220000000000026e+00 1.472269999999999968e+00
8.930000000000000437e-02 8.330999999999999517e-02 2.921899999999999942e+00 1.480820000000000025e+00 1.531190000000000051e+00 1.473430000000000017e+00
