-1.891923504000000023e+01
-1.891923416999999930e+01
-1.891921337999999864e+01
-1.891912169000000077e+01
-1.891894149000000169e+01
-1.890319488000000092e+01
-1.890317702999999838e+01
-1.890311694000000031e+01
-1.890301175000000100e+01
-1.890285963999999908e+01
-1.888874550999999968e+01
-1.888862752000000000e+01
-1.888846235999999834e+01
-1.888825102999999928e+01
-1.888799389000000062e+01
-1.890377245999999900e+01
-1.890362415999999968e+01
-1.890342726000000084e+01
-1.890318390999999920e+01
-1.890289359000000147e+01
-1.895326955999999896e+01
-1.895317766000000148e+01
-1.895303978000000100e+01
-1.895285519999999835e+01
-1.895262349000000057e+01
-1.885421278000000100e+01
-1.885416744000000122e+01
-1.885407086000000021e+01
-1.885392279999999943e+01
-1.885372158999999925e+01
-1.899628166000000107e+01
-1.899631793000000002e+01
-1.899630755000000093e+01
-1.899625144000000176e+01
-1.899614943999999994e+01
-1.892888621000000171e+01
-1.892895502000000008e+01
-1.892897531999999927e+01
-1.892894855000000121e+01
-1.892887437999999989e+01
-1.872948682999999903e+01
-1.872949179000000086e+01
-1.872943675000000141e+01
-1.872932151999999917e+01
-1.872914644000000095e+01
-1.886067429999999945e+01
-1.886056612999999871e+01
-1.886033631000000099e+01
-1.886003763000000077e+01
-1.885974629000000036e+01
-1.904536504000000008e+01
-1.904534637000000075e+01
-1.904528891000000002e+01
-1.904519395000000159e+01
-1.904506106999999915e+01
-1.902419485000000066e+01
-1.902436403999999825e+01
-1.902449164000000081e+01
-1.902457775999999967e+01
-1.902462214000000174e+01
-1.902028487999999840e+01
-1.902027998000000153e+01
-1.902023319999999984e+01
-1.902014562000000097e+01
-1.902001712999999938e+01
-1.898416445000000152e+01
-1.898423925999999895e+01
-1.898427590000000009e+01
-1.898427565000000072e+01
-1.898423876000000021e+01
-1.902668338000000148e+01
-1.902663946999999922e+01
-1.902655529000000101e+01
-1.902643257000000077e+01
-1.902627104000000102e+01
-1.902542147999999855e+01
-1.902548897999999866e+01
-1.902550908999999990e+01
-1.902548335999999907e+01
-1.902541125000000122e+01
-1.900009972999999874e+01
-1.899989859000000081e+01
-1.899965050000000133e+01
-1.899935613999999973e+01
-1.899901610999999946e+01
-1.902823129000000080e+01
-1.902821516999999929e+01
-1.902815911000000071e+01
-1.902806428999999966e+01
-1.902793047000000115e+01
-1.901160190999999955e+01
-1.901169116999999886e+01
-1.901173960999999935e+01
-1.901174852000000115e+01
-1.901171744999999902e+01
-1.900926091999999912e+01
-1.900920692000000045e+01
-1.900910860999999841e+01
-1.900897253000000120e+01
-1.900879928999999890e+01
-1.895725455999999909e+01
-1.895723938000000075e+01
-1.895719241999999838e+01
-1.895711417000000054e+01
-1.895700476000000023e+01
-1.884403414000000154e+01
-1.884404353000000043e+01
-1.884402429000000012e+01
-1.884397814000000082e+01
-1.884390460999999917e+01
-1.898419300999999848e+01
-1.898420978000000048e+01
-1.898419112999999925e+01
-1.898413843000000156e+01
-1.898405175999999983e+01
-1.893946410999999941e+01
-1.893935722000000155e+01
-1.893921920000000014e+01
-1.893905031999999977e+01
-1.893885089999999849e+01
-1.890901656999999858e+01
-1.890901550999999969e+01
-1.890898315999999824e+01
-1.890892008000000146e+01
-1.890882626000000144e+01
-1.887280704999999870e+01
-1.887282178999999971e+01
-1.887280738999999841e+01
-1.887276513000000122e+01
-1.887269467000000134e+01
-1.893552366999999848e+01
-1.893541297000000156e+01
-1.893527070000000023e+01
-1.893509819000000149e+01
-1.893489579999999961e+01
-1.892995884999999845e+01
-1.892998582999999968e+01
-1.892998031000000125e+01
-1.892994413999999992e+01
-1.892987682000000049e+01
-1.884648458999999932e+01
-1.884648625000000166e+01
-1.884645826999999940e+01
-1.884640199000000038e+01
-1.884631708999999944e+01
-1.896766158000000146e+01
-1.896758592000000121e+01
-1.896747719000000032e+01
-1.896733615000000128e+01
-1.896716304999999991e+01
