0.000000000000000000e+00 0.000000000000000000e+00 0.000000000000000000e+00 -9.999999999999999547e-07 0.000000000000000000e+00 -9.999999999999999547e-07
1.807999999999999885e-02 -4.283999999999999614e-03 -4.858999999999999604e-03 -1.807599999999999832e-02 4.283000000000000348e-03 4.865000000000000401e-03
3.616699999999999776e-02 -8.661000000000000296e-03 -9.801999999999999949e-03 -3.615600000000000064e-02 8.659000000000000030e-03 9.801000000000000684e-03
5.458999999999999964e-02 -1.309300000000000047e-02 -1.481000000000000025e-02 -5.459499999999999770e-02 1.309300000000000047e-02 1.481599999999999931e-02
7.211199999999999555e-02 -1.724399999999999891e-02 -1.951999999999999916e-02 -7.211800000000000155e-02 1.724399999999999891e-02 1.951999999999999916e-02
-1.731399999999999953e-02 4.170900000000000302e-02 -8.434000000000000524e-03 1.729999999999999941e-02 -4.166600000000000165e-02 8.345999999999999253e-03
-9.608000000000000221e-03 4.718300000000000272e-02 5.754999999999999699e-03 9.589000000000000301e-03 -4.713300000000000128e-02 -5.841999999999999971e-03
-2.138999999999999842e-03 5.242600000000000038e-02 1.933100000000000096e-02 2.132000000000000214e-03 -5.237100000000000088e-02 -1.940700000000000064e-02
5.938999999999999835e-03 5.812599999999999711e-02 3.396899999999999920e-02 -5.945999999999999897e-03 -5.804999999999999744e-02 -3.401900000000000063e-02
1.343899999999999956e-02 6.321300000000000530e-02 4.740899999999999975e-02 -1.344899999999999915e-02 -6.314599999999999380e-02 -4.746800000000000325e-02
3.591899999999999954e-02 7.676999999999999796e-03 -1.544799999999999993e-02 -3.603699999999999959e-02 -7.596000000000000321e-03 1.535500000000000059e-02
4.616900000000000170e-02 1.465699999999999989e-02 -2.584099999999999939e-02 -4.630599999999999994e-02 -1.458600000000000001e-02 2.576600000000000071e-02
5.829399999999999860e-02 2.325400000000000036e-02 -3.793599999999999750e-02 -5.841999999999999971e-02 -2.319200000000000081e-02 3.786799999999999888e-02
6.933499999999999386e-02 3.089000000000000079e-02 -4.887199999999999878e-02 -6.948000000000000009e-02 -3.084100000000000036e-02 4.882199999999999734e-02
8.042100000000000637e-02 3.861699999999999855e-02 -6.004600000000000215e-02 -8.057100000000000373e-02 -3.858099999999999724e-02 6.002099999999999796e-02
8.249599999999999989e-02 -1.939199999999999952e-02 7.479999999999999670e-03 -8.241600000000000315e-02 1.952399999999999969e-02 -7.254000000000000031e-03
9.019099999999999340e-02 -3.397399999999999726e-02 3.179999999999999776e-04 -9.013100000000000278e-02 3.412300000000000055e-02 -9.200000000000000007e-05
9.804999999999999827e-02 -4.882700000000000234e-02 -7.224000000000000386e-03 -9.797899999999999665e-02 4.897300000000000264e-02 7.446999999999999627e-03
1.060770000000000046e-01 -6.386600000000000610e-02 -1.478699999999999980e-02 -1.059839999999999949e-01 6.400799999999999546e-02 1.499799999999999918e-02
1.137480000000000019e-01 -7.842200000000000559e-02 -2.204599999999999962e-02 -1.136810000000000043e-01 7.857400000000000495e-02 2.225500000000000048e-02
2.407899999999999971e-02 3.698300000000000198e-02 -3.567100000000000132e-02 -2.409700000000000036e-02 -3.692100000000000243e-02 3.581999999999999768e-02
2.389200000000000004e-02 5.368300000000000155e-02 -3.109699999999999964e-02 -2.390199999999999964e-02 -5.363300000000000012e-02 3.124100000000000141e-02
2.366800000000000154e-02 7.093000000000000693e-02 -2.606899999999999842e-02 -2.366100000000000148e-02 -7.087100000000000344e-02 2.622999999999999984e-02
2.344600000000000156e-02 8.738300000000000234e-02 -2.154199999999999865e-02 -2.344399999999999956e-02 -8.735900000000000609e-02 2.167399999999999882e-02
2.324800000000000130e-02 1.042349999999999943e-01 -1.667400000000000132e-02 -2.324299999999999977e-02 -1.041920000000000068e-01 1.681200000000000055e-02
3.543400000000000022e-02 3.333000000000000025e-03 1.255700000000000045e-02 -3.541199999999999903e-02 -3.265000000000000107e-03 -1.269200000000000016e-02
3.358099999999999974e-02 9.698000000000000023e-03 2.789700000000000166e-02 -3.357299999999999868e-02 -9.629999999999999671e-03 -2.803399999999999989e-02
3.075999999999999915e-02 1.792900000000000049e-02 4.818299999999999667e-02 -3.075599999999999862e-02 -1.786599999999999994e-02 -4.831400000000000278e-02
2.840700000000000169e-02 2.529299999999999951e-02 6.606399999999999773e-02 -2.841000000000000122e-02 -2.522800000000000042e-02 -6.618400000000000671e-02
2.608800000000000008e-02 3.263300000000000228e-02 8.395900000000000585e-02 -2.608800000000000008e-02 -3.257499999999999979e-02 -8.407199999999999396e-02
2.160199999999999967e-02 -8.472999999999999629e-03 1.440400000000000014e-02 -2.150600000000000081e-02 8.522999999999999327e-03 -1.433899999999999932e-02
1.715500000000000011e-02 -3.089999999999999865e-03 -9.680000000000000019e-04 -1.705299999999999871e-02 3.137000000000000031e-03 1.031000000000000015e-03
1.234200000000000054e-02 2.517000000000000140e-03 -1.668800000000000144e-02 -1.224100000000000014e-02 -2.456999999999999983e-03 1.673300000000000134e-02
7.719000000000000167e-03 7.974999999999999450e-03 -3.233699999999999769e-02 -7.611999999999999843e-03 -7.931000000000000549e-03 3.240900000000000031e-02
3.177000000000000136e-03 1.336700000000000041e-02 -4.747900000000000037e-02 -3.070999999999999945e-03 -1.331899999999999924e-02 4.754400000000000293e-02
-1.883299999999999905e-02 3.031800000000000120e-02 8.279999999999999166e-03 1.884100000000000011e-02 -3.029700000000000101e-02 -8.288999999999999493e-03
-9.596999999999999628e-03 1.636699999999999960e-02 1.128999999999999969e-02 9.603999999999999690e-03 -1.633400000000000130e-02 -1.128900000000000042e-02
1.140000000000000063e-04 1.760999999999999979e-03 1.463399999999999944e-02 -1.010000000000000020e-04 -1.742000000000000059e-03 -1.463099999999999991e-02
9.608999999999999486e-03 -1.251400000000000082e-02 1.783900000000000069e-02 -9.601999999999999424e-03 1.253899999999999980e-02 -1.784699999999999828e-02
1.895000000000000157e-02 -2.653000000000000150e-02 2.099099999999999924e-02 -1.895200000000000010e-02 2.656299999999999981e-02 -2.099699999999999830e-02
-7.985000000000000778e-03 -1.049100000000000033e-02 -4.418000000000000052e-03 7.986000000000000043e-03 1.052499999999999963e-02 4.317999999999999790e-03
2.939999999999999905e-04 2.677000000000000126e-03 8.321000000000000271e-03 -2.910000000000000260e-04 -2.641999999999999817e-03 -8.413999999999999604e-03
1.106700000000000045e-02 1.863100000000000173e-02 2.367599999999999913e-02 -1.106399999999999918e-02 -1.859699999999999895e-02 -2.377699999999999952e-02
2.069599999999999912e-02 3.312199999999999867e-02 3.770600000000000340e-02 -2.069899999999999865e-02 -3.309399999999999842e-02 -3.781099999999999739e-02
3.030100000000000154e-02 4.778000000000000302e-02 5.182500000000000301e-02 -3.030100000000000154e-02 -4.774400000000000172e-02 -5.191599999999999687e-02
4.144899999999999973e-02 6.620600000000000096e-02 3.450700000000000295e-02 -4.148299999999999904e-02 -6.620499999999999996e-02 -3.453300000000000120e-02
3.383499999999999702e-02 8.262700000000000600e-02 3.852400000000000269e-02 -3.386200000000000321e-02 -8.262799999999999312e-02 -3.855999999999999706e-02
2.564599999999999866e-02 1.003470000000000056e-01 4.335100000000000064e-02 -2.570700000000000068e-02 -1.003089999999999954e-01 -4.336899999999999783e-02
1.772500000000000117e-02 1.179960000000000037e-01 4.830600000000000172e-02 -1.776900000000000007e-02 -1.180049999999999988e-01 -4.833199999999999996e-02
9.672999999999999307e-03 1.350999999999999979e-01 5.268300000000000066e-02 -9.730000000000000801e-03 -1.351130000000000109e-01 -5.272000000000000297e-02
-9.999999999999999547e-07 0.000000000000000000e+00 -9.999999999999999547e-07 0.000000000000000000e+00 0.000000000000000000e+00 -9.999999999999999547e-07
-5.936000000000000304e-03 -1.266800000000000044e-02 4.400000000000000157e-04 5.917000000000000384e-03 1.263700000000000066e-02 -4.440000000000000045e-04
-1.196299999999999968e-02 -2.543700000000000128e-02 9.160000000000000390e-04 1.192900000000000037e-02 2.537400000000000072e-02 -9.139999999999999904e-04
-1.816299999999999859e-02 -3.874600000000000266e-02 1.399999999999999986e-03 1.816699999999999912e-02 3.875800000000000078e-02 -1.400999999999999902e-03
-2.398199999999999985e-02 -5.102299999999999891e-02 1.840999999999999972e-03 2.398000000000000131e-02 5.102399999999999991e-02 -1.843000000000000020e-03
-3.581299999999999761e-02 -4.392399999999999777e-02 -5.836700000000000221e-02 3.598699999999999816e-02 4.369100000000000067e-02 5.835300000000000209e-02
-2.490500000000000005e-02 -3.559799999999999770e-02 -5.405499999999999888e-02 2.509700000000000125e-02 3.538600000000000079e-02 5.407100000000000101e-02
-1.189699999999999959e-02 -2.580599999999999908e-02 -4.866100000000000286e-02 1.211800000000000030e-02 2.561899999999999941e-02 4.870300000000000323e-02
-1.106999999999999911e-03 -1.771299999999999958e-02 -4.448200000000000071e-02 1.345999999999999974e-03 1.752300000000000038e-02 4.451800000000000201e-02
1.136999999999999990e-02 -8.234000000000000000e-03 -3.939499999999999946e-02 -1.119500000000000009e-02 8.009999999999999759e-03 3.940099999999999852e-02
7.610999999999999710e-03 -4.414200000000000068e-02 -9.079000000000000264e-03 -7.518999999999999642e-03 4.414400000000000268e-02 9.128999999999999962e-03
1.326800000000000028e-02 -3.897300000000000070e-02 -2.226500000000000007e-02 -1.317499999999999921e-02 3.901600000000000207e-02 2.230199999999999891e-02
1.895900000000000016e-02 -3.354000000000000037e-02 -3.567200000000000232e-02 -1.884800000000000017e-02 3.360699999999999799e-02 3.568199999999999844e-02
2.450000000000000094e-02 -2.835700000000000026e-02 -4.889700000000000296e-02 -2.442000000000000073e-02 2.839500000000000010e-02 4.896899999999999864e-02
3.022199999999999886e-02 -2.299800000000000108e-02 -6.213199999999999973e-02 -3.012099999999999847e-02 2.304900000000000004e-02 6.216200000000000198e-02
-5.918099999999999750e-02 -2.418199999999999864e-02 1.407500000000000070e-02 5.909899999999999876e-02 2.409700000000000036e-02 -1.385899999999999979e-02
-4.986700000000000160e-02 -3.068999999999999853e-02 1.513800000000000041e-02 4.980099999999999805e-02 3.057500000000000148e-02 -1.490900000000000038e-02
-3.666300000000000114e-02 -3.955000000000000182e-02 1.653500000000000109e-02 3.653399999999999703e-02 3.949500000000000233e-02 -1.633000000000000076e-02
-2.558200000000000057e-02 -4.687700000000000200e-02 1.769599999999999992e-02 2.549200000000000077e-02 4.680399999999999838e-02 -1.748699999999999907e-02
-1.405600000000000079e-02 -5.474299999999999999e-02 1.896400000000000169e-02 1.401400000000000041e-02 5.464000000000000107e-02 -1.875200000000000131e-02
8.250999999999999654e-03 8.800000000000000530e-03 1.527399999999999938e-02 -8.231000000000000469e-03 -8.765999999999999487e-03 -1.529999999999999936e-02
4.472000000000000280e-03 2.228000000000000119e-02 1.863400000000000126e-02 -4.451000000000000095e-03 -2.226200000000000054e-02 -1.867900000000000116e-02
6.070000000000000092e-04 3.590900000000000342e-02 2.199800000000000019e-02 -5.919999999999999698e-04 -3.591699999999999754e-02 -2.203499999999999903e-02
-3.204999999999999950e-03 4.978500000000000286e-02 2.530999999999999917e-02 3.220000000000000206e-03 -4.977399999999999880e-02 -2.534199999999999994e-02
-7.008000000000000340e-03 6.311300000000000243e-02 2.867799999999999863e-02 7.017999999999999933e-03 -6.310899999999999843e-02 -2.871699999999999947e-02
3.272800000000000015e-02 2.164699999999999958e-02 -4.399000000000000132e-03 -3.270900000000000196e-02 -2.156599999999999837e-02 4.317999999999999790e-03
2.539800000000000044e-02 6.377999999999999989e-03 -3.732000000000000074e-03 -2.537599999999999925e-02 -6.272999999999999930e-03 3.638000000000000175e-03
1.786700000000000094e-02 -9.353000000000000203e-03 -2.867999999999999890e-03 -1.783699999999999869e-02 9.450999999999999332e-03 2.772999999999999857e-03
1.075699999999999920e-02 -2.452899999999999872e-02 -2.101000000000000003e-03 -1.074300000000000081e-02 2.459899999999999934e-02 2.011000000000000201e-03
3.125000000000000173e-03 -4.026500000000000218e-02 -1.307000000000000002e-03 -3.105999999999999820e-03 4.034399999999999792e-02 1.221999999999999996e-03
-5.228100000000000108e-02 -4.682299999999999657e-02 -1.479899999999999965e-02 5.229899999999999827e-02 4.692299999999999943e-02 1.476700000000000061e-02
-6.033100000000000268e-02 -5.913000000000000200e-02 -2.265500000000000153e-02 6.031399999999999956e-02 5.920099999999999668e-02 2.260699999999999862e-02
-6.922300000000000675e-02 -7.256100000000000050e-02 -3.135299999999999893e-02 6.921199999999999575e-02 7.263999999999999624e-02 3.131199999999999956e-02
-7.771699999999999442e-02 -8.535500000000000032e-02 -3.958300000000000013e-02 7.774899999999999867e-02 8.550199999999999467e-02 3.959300000000000319e-02
-8.638700000000000545e-02 -9.842499999999999860e-02 -4.797599999999999781e-02 8.639399999999999857e-02 9.853000000000000647e-02 4.796199999999999769e-02
1.443999999999999971e-03 -4.265999999999999827e-03 8.012999999999999290e-03 -1.446999999999999936e-03 4.300000000000000003e-03 -8.040000000000000271e-03
-5.812999999999999591e-03 6.806999999999999683e-03 1.297099999999999989e-02 5.806000000000000397e-03 -6.777000000000000038e-03 -1.299999999999999940e-02
-1.346600000000000054e-02 1.865299999999999944e-02 1.844700000000000159e-02 1.344300000000000009e-02 -1.859200000000000089e-02 -1.846100000000000171e-02
-2.067099999999999840e-02 2.987400000000000125e-02 2.349100000000000146e-02 2.066600000000000034e-02 -2.984799999999999953e-02 -2.351800000000000071e-02
-2.813299999999999829e-02 4.127499999999999919e-02 2.873600000000000113e-02 2.812399999999999969e-02 -4.124599999999999794e-02 -2.876000000000000084e-02
2.052100000000000105e-02 -7.283799999999999997e-02 -3.561099999999999682e-02 -2.075099999999999861e-02 7.286299999999999721e-02 3.572000000000000175e-02
2.972100000000000089e-02 -6.151800000000000324e-02 -3.662900000000000184e-02 -2.993200000000000027e-02 6.152400000000000230e-02 3.671200000000000158e-02
3.922099999999999892e-02 -4.951099999999999945e-02 -3.759099999999999941e-02 -3.946600000000000108e-02 4.945100000000000190e-02 3.767800000000000316e-02
4.887600000000000278e-02 -3.746399999999999730e-02 -3.865699999999999692e-02 -4.907799999999999663e-02 3.744299999999999712e-02 3.872400000000000148e-02
5.794699999999999851e-02 -2.631599999999999911e-02 -3.962999999999999856e-02 -5.813399999999999818e-02 2.632100000000000065e-02 3.968300000000000299e-02
1.425000000000000051e-03 -1.251799999999999961e-02 -5.343400000000000233e-02 -1.639000000000000049e-03 1.249800000000000043e-02 5.341699999999999920e-02
-8.656999999999999765e-03 -1.799600000000000158e-02 -5.599799999999999917e-02 8.370000000000000703e-03 1.795000000000000068e-02 5.597599999999999798e-02
-2.255199999999999913e-02 -2.601200000000000040e-02 -5.967000000000000082e-02 2.233200000000000116e-02 2.601399999999999893e-02 5.967599999999999988e-02
-3.490300000000000347e-02 -3.296299999999999925e-02 -6.299499999999999544e-02 3.457500000000000157e-02 3.289299999999999863e-02 6.295000000000000595e-02
-4.647300000000000042e-02 -3.948700000000000127e-02 -6.611499999999999322e-02 4.616599999999999870e-02 3.944000000000000283e-02 6.605900000000000660e-02
9.999999999999999547e-07 9.999999999999999547e-07 9.999999999999999547e-07 9.999999999999999547e-07 0.000000000000000000e+00 0.000000000000000000e+00
6.301000000000000177e-03 -3.738000000000000003e-03 6.615000000000000220e-03 -6.290999999999999717e-03 3.733999999999999906e-03 -6.621000000000000149e-03
1.465600000000000062e-02 -8.845999999999999697e-03 1.532099999999999955e-02 -1.469200000000000020e-02 8.876000000000000209e-03 -1.536399999999999919e-02
2.190500000000000086e-02 -1.318399999999999954e-02 2.286600000000000091e-02 -2.200300000000000172e-02 1.325100000000000063e-02 -2.297499999999999890e-02
2.969799999999999870e-02 -1.792900000000000049e-02 3.102099999999999996e-02 -2.972299999999999942e-02 1.795199999999999921e-02 -3.104600000000000068e-02
-1.328700000000000020e-02 -6.772000000000000242e-03 -1.853000000000000133e-02 1.334100000000000043e-02 6.778000000000000171e-03 1.861099999999999907e-02
-5.460999999999999709e-03 -1.102099999999999955e-02 -1.833500000000000060e-02 5.538999999999999653e-03 1.103600000000000067e-02 1.842699999999999894e-02
4.722999999999999768e-03 -1.613500000000000004e-02 -1.803400000000000142e-02 -4.699000000000000052e-03 1.616599999999999981e-02 1.812100000000000169e-02
1.401400000000000041e-02 -2.062200000000000144e-02 -1.774799999999999989e-02 -1.396299999999999972e-02 2.062500000000000097e-02 1.782200000000000104e-02
2.287499999999999950e-02 -2.524300000000000155e-02 -1.747900000000000148e-02 -2.281800000000000148e-02 2.523999999999999855e-02 1.754899999999999863e-02
-7.522000000000000040e-03 -1.859999999999999848e-02 1.929900000000000018e-02 7.599999999999999985e-03 1.868300000000000169e-02 -1.942400000000000029e-02
2.690999999999999816e-03 -1.751099999999999879e-02 1.757600000000000134e-02 -2.583999999999999925e-03 1.759300000000000100e-02 -1.771000000000000005e-02
1.733600000000000071e-02 -1.645699999999999941e-02 1.560399999999999981e-02 -1.736000000000000043e-02 1.654900000000000121e-02 -1.573599999999999999e-02
2.939299999999999899e-02 -1.564400000000000165e-02 1.412300000000000014e-02 -2.939500000000000099e-02 1.571600000000000080e-02 -1.423999999999999919e-02
4.235200000000000076e-02 -1.451599999999999939e-02 1.214999999999999934e-02 -4.224300000000000277e-02 1.459399999999999933e-02 -1.227800000000000072e-02
-3.434100000000000347e-02 -3.250999999999999984e-03 1.898499999999999840e-02 3.434100000000000347e-02 3.171000000000000207e-03 -1.895200000000000010e-02
-4.125500000000000000e-02 -8.663999999999999826e-03 2.205599999999999922e-02 4.123099999999999682e-02 8.578000000000000555e-03 -2.202600000000000044e-02
-5.157199999999999979e-02 -1.656499999999999986e-02 2.675800000000000053e-02 5.166699999999999765e-02 1.655200000000000074e-02 -2.677699999999999872e-02
-5.979099999999999693e-02 -2.278000000000000164e-02 3.032299999999999926e-02 5.981899999999999717e-02 2.274400000000000033e-02 -3.032100000000000073e-02
-6.892900000000000416e-02 -2.981400000000000022e-02 3.450399999999999995e-02 6.890599999999999503e-02 2.974399999999999961e-02 -3.447000000000000064e-02
-9.601000000000000159e-03 1.410400000000000022e-02 -1.874299999999999924e-02 9.454999999999999863e-03 -1.392999999999999967e-02 1.905899999999999955e-02
-2.141999999999999807e-03 2.000400000000000095e-02 -1.525699999999999973e-02 2.007000000000000103e-03 -1.981899999999999981e-02 1.556100000000000018e-02
7.441999999999999831e-03 2.731400000000000147e-02 -1.098200000000000044e-02 -7.537000000000000297e-03 -2.709400000000000003e-02 1.129800000000000075e-02
1.585400000000000004e-02 3.375600000000000128e-02 -7.302000000000000331e-03 -1.603299999999999864e-02 -3.356200000000000155e-02 7.597999999999999719e-03
2.464399999999999924e-02 4.055299999999999877e-02 -3.298000000000000150e-03 -2.480600000000000166e-02 -4.036000000000000004e-02 3.572999999999999787e-03
1.618999999999999953e-02 -3.076100000000000015e-02 1.744000000000000107e-03 -1.615199999999999969e-02 3.095900000000000041e-02 -1.794000000000000022e-03
7.164000000000000229e-03 -3.274200000000000027e-02 -2.239000000000000105e-03 -7.141999999999999911e-03 3.292400000000000188e-02 2.174000000000000151e-03
-2.658000000000000206e-03 -3.464400000000000118e-02 -6.235000000000000091e-03 2.660000000000000038e-03 3.482999999999999985e-02 6.167999999999999872e-03
-1.265499999999999958e-02 -3.657599999999999740e-02 -1.027499999999999941e-02 1.281000000000000021e-02 3.677500000000000213e-02 1.026000000000000002e-02
-2.177799999999999875e-02 -3.851700000000000262e-02 -1.416300000000000024e-02 2.183200000000000071e-02 3.871000000000000135e-02 1.412799999999999993e-02
2.746399999999999883e-02 -1.699000000000000163e-02 2.069999999999999965e-02 -2.737900000000000056e-02 1.713100000000000039e-02 -2.071399999999999977e-02
3.518099999999999700e-02 -1.887700000000000142e-02 2.443199999999999886e-02 -3.521500000000000324e-02 1.903399999999999884e-02 -2.449600000000000041e-02
4.773100000000000259e-02 -2.158799999999999955e-02 2.979100000000000151e-02 -4.762000000000000260e-02 2.170899999999999913e-02 -2.979199999999999904e-02
5.772800000000000153e-02 -2.369100000000000025e-02 3.405400000000000094e-02 -5.768600000000000116e-02 2.383199999999999902e-02 -3.408400000000000318e-02
6.800599999999999701e-02 -2.605599999999999930e-02 3.871600000000000041e-02 -6.794300000000000339e-02 2.619700000000000153e-02 -3.873599999999999960e-02
1.706200000000000078e-02 4.886999999999999851e-03 2.524999999999999901e-03 -1.706299999999999831e-02 -4.972999999999999990e-03 -2.428000000000000037e-03
9.414000000000000493e-03 -2.788999999999999813e-03 1.012000000000000096e-03 -9.409000000000000696e-03 2.696000000000000046e-03 -9.129999999999999661e-04
1.242999999999999964e-03 -1.115799999999999952e-02 -5.550000000000000462e-04 -1.288999999999999998e-03 1.101399999999999949e-02 6.440000000000000412e-04
-7.246999999999999970e-03 -1.990400000000000155e-02 -2.115000000000000126e-03 7.249000000000000235e-03 1.981000000000000122e-02 2.210999999999999858e-03
-1.504999999999999914e-02 -2.775100000000000136e-02 -3.637000000000000042e-03 1.503799999999999928e-02 2.764600000000000043e-02 3.733000000000000207e-03
1.253699999999999953e-02 5.317999999999999811e-03 1.291300000000000087e-02 -1.260900000000000042e-02 -5.375999999999999703e-03 -1.292800000000000026e-02
6.675999999999999643e-03 1.104400000000000000e-02 1.318500000000000054e-02 -6.754999999999999720e-03 -1.109100000000000016e-02 -1.319500000000000013e-02
-2.977000000000000045e-03 1.996900000000000064e-02 1.351199999999999971e-02 2.879000000000000049e-03 -1.998899999999999982e-02 -1.353799999999999969e-02
-1.093900000000000081e-02 2.748300000000000048e-02 1.392799999999999941e-02 1.083100000000000035e-02 -2.749000000000000055e-02 -1.395000000000000059e-02
-1.848400000000000043e-02 3.459600000000000175e-02 1.423699999999999966e-02 1.840500000000000122e-02 -3.461600000000000094e-02 -1.425799999999999984e-02
-1.890800000000000120e-02 -4.657999999999999814e-03 3.640199999999999686e-02 1.893900000000000097e-02 4.627000000000000036e-03 -3.638999999999999874e-02
-1.413900000000000053e-02 -5.323999999999999740e-03 4.510700000000000126e-02 1.417799999999999963e-02 5.290999999999999696e-03 -4.506500000000000089e-02
-7.424000000000000044e-03 -6.138000000000000227e-03 5.758200000000000124e-02 7.428999999999999840e-03 6.106999999999999582e-03 -5.767800000000000010e-02
-1.912999999999999987e-03 -6.824000000000000205e-03 6.818499999999999561e-02 1.904000000000000093e-03 6.788999999999999896e-03 -6.821499999999999786e-02
3.964999999999999775e-03 -7.556000000000000216e-03 7.897600000000000453e-02 -3.952999999999999917e-03 7.524999999999999571e-03 -7.896400000000000641e-02
