2.957890987187448140e+00 -2.408621892565734906e-06 7.627302659791493232e-06 -2.408621892565734906e-06 2.957889649064174176e+00 -2.274809565200972208e-06 7.627302659791493232e-06 -2.274809565200972208e-06 2.957892726747703982e+00
2.944265413141203602e+00 2.060709841417350961e-05 2.221284634255066536e-05 2.060709841417350961e-05 2.944324290565244251e+00 -6.958241022967678051e-06 2.221284634255066536e-05 -6.958241022967678051e-06 2.944323353878952609e+00
2.939073494839450795e+00 -1.097261084391056998e-05 -1.244454644492296474e-05 -1.097261084391056998e-05 2.939104673111726740e+00 2.810058874660024268e-06 -1.244454644492296474e-05 2.810058874660024268e-06 2.939104004050089980e+00
2.934230692899792992e+00 -2.435384358038687530e-05 -2.796677641923547660e-05 -2.435384358038687530e-05 2.934266153166544377e+00 4.549619130401944416e-06 -2.796677641923547660e-05 4.549619130401944416e-06 2.934266286978871818e+00
2.938588692777408529e+00 -5.165155836279854010e-05 -5.847598705840144953e-05 -5.165155836279854010e-05 2.938648373075412934e+00 1.498698066485346107e-05 -5.847598705840144953e-05 1.498698066485346107e-05 2.938648239263085493e+00
4.104294995019767356e+00 -1.287723039155458660e-01 -3.449487700193066830e-01 -1.287723039155458660e-01 2.313975038434730180e+00 -4.233525782605757626e-01 -3.449487700193066830e-01 -4.233525782605757626e-01 1.680850610565292724e+00
4.102189960466990470e+00 -1.287844366795388162e-01 -3.448580439063372305e-01 -1.287844366795388162e-01 2.312406811284397179e+00 -4.234029966353908825e-01 -3.448580439063372305e-01 -4.234029966353908825e-01 1.679229538487346352e+00
4.099052023272947487e+00 -1.288492795626566823e-01 -3.449812588651100520e-01 -1.288492795626566823e-01 2.310245157166320507e+00 -4.231728785449913599e-01 -3.449812588651100520e-01 -4.231728785449913599e-01 1.676834530875138451e+00
4.095186255047817525e+00 -1.289908284759077317e-01 -3.450895100816249172e-01 -1.289908284759077317e-01 2.307542786199624718e+00 -4.229945269142950104e-01 -3.450895100816249172e-01 -4.229945269142950104e-01 1.673815629576715480e+00
4.089868734206686618e+00 -1.291709326169586114e-01 -3.452210831667040236e-01 -1.291709326169586114e-01 2.303576450841841261e+00 -4.228088956252029074e-01 -3.452210831667040236e-01 -4.228088956252029074e-01 1.669610143959782356e+00
4.443104406199640977e+00 -3.293205736188115074e-01 2.545738017511067208e-01 -3.293205736188115074e-01 1.500426836175589917e+00 -4.955823270029863226e-01 2.545738017511067208e-01 -4.955823270029863226e-01 1.931916180634133839e+00
4.438877696442887100e+00 -3.293838080720485340e-01 2.547245916011334765e-01 -3.293838080720485340e-01 1.496686680406243308e+00 -4.954453190209727187e-01 2.547245916011334765e-01 -4.954453190209727187e-01 1.928200886273752079e+00
4.439793515083999331e+00 -3.292430168321490158e-01 2.546206871256222470e-01 -3.292430168321490158e-01 1.498011090899040942e+00 -4.954282943604857992e-01 2.546206871256222470e-01 -4.954282943604857992e-01 1.929498543728641824e+00
4.438767306382428224e+00 -3.291901863380983784e-01 2.546571685409512731e-01 -3.291901863380983784e-01 1.497593040902640560e+00 -4.952589935700884016e-01 2.546571685409512731e-01 -4.952589935700884016e-01 1.929103868861322457e+00
4.437265893467108313e+00 -3.291472193378219280e-01 2.547283748590194463e-01 -3.291472193378219280e-01 1.497028524779511649e+00 -4.950253773956293513e-01 2.547283748590194463e-01 -4.950253773956293513e-01 1.928572186011989986e+00
2.456155847116696211e+00 2.209506462033783425e-01 -2.598885634692421065e-01 2.209506462033783425e-01 3.734333023309493793e+00 -4.458885499157901333e-01 -2.598885634692421065e-01 -4.458885499157901333e-01 2.668404977587658156e+00
2.446140106888504917e+00 2.211550900506734085e-01 -2.597664594818595574e-01 2.211550900506734085e-01 3.723833687026010697e+00 -4.457718013664507262e-01 -2.597664594818595574e-01 -4.457718013664507262e-01 2.657985571216968879e+00
2.445077052436951170e+00 2.208812932807203144e-01 -2.597793125331630537e-01 2.208812932807203144e-01 3.722542490913820945e+00 -4.456338988368411247e-01 -2.597793125331630537e-01 -4.456338988368411247e-01 2.656813131943384310e+00
2.445469338273607462e+00 2.208606748442543677e-01 -2.596226659704025663e-01 2.208606748442543677e-01 3.722575962401589944e+00 -4.455227734974469556e-01 -2.596226659704025663e-01 -4.455227734974469556e-01 2.656992673003779171e+00
2.445535477933439505e+00 2.208238562077081413e-01 -2.594444637695186850e-01 2.208238562077081413e-01 3.722261999846314229e+00 -4.453662608206375717e-01 -2.594444637695186850e-01 -4.453662608206375717e-01 2.656821031214497975e+00
2.322979599792096561e+00 -4.705654315785730013e-01 9.519695223666813089e-02 -4.705654315785730013e-01 2.112367615655921238e+00 -3.378005681349370848e-01 9.519695223666813089e-02 -3.378005681349370848e-01 2.562858168986912766e+00
2.320537552843700446e+00 -4.703892883928860180e-01 9.517993685937997661e-02 -4.703892883928860180e-01 2.110002069843813111e+00 -3.376222469809572746e-01 9.517993685937997661e-02 -3.376222469809572746e-01 2.560360311601011851e+00
2.318967237704531392e+00 -4.701056080227379308e-01 9.521369536791966792e-02 -4.701056080227379308e-01 2.108097981063759896e+00 -3.375831796747036373e-01 9.521369536791966792e-02 -3.375831796747036373e-01 2.558648836891860512e+00
2.316335843637673531e+00 -4.699102714914699108e-01 9.522172662599967530e-02 -4.699102714914699108e-01 2.105240622786514582e+00 -3.375025948478669324e-01 9.522172662599967530e-02 -3.375025948478669324e-01 2.555849603143431903e+00
2.313032001860387155e+00 -4.696900244478520725e-01 9.522621868560374181e-02 -4.696900244478520725e-01 2.101697068373993282e+00 -3.374066281199618045e-01 9.522621868560374181e-02 -3.374066281199618045e-01 2.552366215105001057e+00
2.167233002876320480e+00 1.060032078190126653e-01 1.385100807190643990e-01 1.060032078190126653e-01 4.705971628936888251e+00 4.290951487169009648e-01 1.385100807190643990e-01 4.290951487169009648e-01 3.366850891808911950e+00
2.163821996427844674e+00 1.059842563106541263e-01 1.384071064393820050e-01 1.059842563106541263e-01 4.702438829228402284e+00 4.289824998909936293e-01 1.384071064393820050e-01 4.289824998909936293e-01 3.363512908305229754e+00
2.165158674143258466e+00 1.060462794289184218e-01 1.385086229107291289e-01 1.060462794289184218e-01 4.703531655367733322e+00 4.289175611560586687e-01 1.385086229107291289e-01 4.289175611560586687e-01 3.364856344950198253e+00
2.165992805567094948e+00 1.060682790819780091e-01 1.384903340425230056e-01 1.060682790819780091e-01 4.703989407185009242e+00 4.286922635042439422e-01 1.384903340425230056e-01 4.286922635042439422e-01 3.365611887251961143e+00
2.166842177714437323e+00 1.060886883986718182e-01 1.384545514742935857e-01 1.060886883986718182e-01 4.704319534508933032e+00 4.283784371280690007e-01 1.384545514742935857e-01 4.283784371280690007e-01 3.366273069596022349e+00
1.170612384857913080e+00 -4.503742067191940368e-01 -4.467830569228434245e-01 -4.503742067191940368e-01 1.838724107386444651e+00 -1.808221875634511422e-01 -4.467830569228434245e-01 -1.808221875634511422e-01 1.530441435088731650e+00
1.170504492643191119e+00 -4.504575335654928958e-01 -4.468183696399516402e-01 -4.504575335654928958e-01 1.838635337077824783e+00 -1.808944879091509417e-01 -4.468183696399516402e-01 -1.808944879091509417e-01 1.530415892688610002e+00
1.170819096850155061e+00 -4.503926307455113909e-01 -4.468270233492824817e-01 -4.503926307455113909e-01 1.838765421869701600e+00 -1.808265144181165907e-01 -4.468270233492824817e-01 -1.808265144181165907e-01 1.530549746031324432e+00
1.170584330090566061e+00 -4.504326890451558763e-01 -4.468095763546637844e-01 -4.504326890451558763e-01 1.838421785863692204e+00 -1.808163253732592568e-01 -4.468095763546637844e-01 -1.808163253732592568e-01 1.530129622400906664e+00
1.170782946677305203e+00 -4.504889381558064843e-01 -4.467636558648274692e-01 -4.504889381558064843e-01 1.838536796452218569e+00 -1.808059967524450196e-01 -4.467636558648274692e-01 -1.808059967524450196e-01 1.530157118864425625e+00
1.928473836087768234e+00 1.502347283682743395e-01 -9.963119660353247919e-02 1.502347283682743395e-01 1.527084009847716528e+00 2.516612920113994734e-01 -9.963119660353247919e-02 2.516612920113994734e-01 3.798225351111611303e+00
1.923983110819069919e+00 1.502045929166797855e-01 -9.964572134821993166e-02 1.502045929166797855e-01 1.522381114710358974e+00 2.517009296324157486e-01 -9.964572134821993166e-02 2.517009296324157486e-01 3.793067166313676353e+00
1.923320538119821954e+00 1.503016507900586385e-01 -9.965943162124267507e-02 1.503016507900586385e-01 1.521590262723918174e+00 2.517337799895593697e-01 -9.965943162124267507e-02 2.517337799895593697e-01 3.791685007898650817e+00
1.921579469191210476e+00 1.503023295164459261e-01 -9.969947647809129787e-02 1.503023295164459261e-01 1.519691186292351448e+00 2.517891640627601402e-01 -9.969947647809129787e-02 2.517891640627601402e-01 3.789257067866127482e+00
1.919343337235728031e+00 1.502683931970826559e-01 -9.975363884379502555e-02 1.502683931970826559e-01 1.517363019038755922e+00 2.518522856167758062e-01 -9.975363884379502555e-02 2.518522856167758062e-01 3.786246780593330641e+00
4.105765258731656431e+00 1.068346106710989507e-01 -1.523977402612308185e-01 1.068346106710989507e-01 4.855308048215510652e+00 5.276127893621379572e-01 -1.523977402612308185e-01 5.276127893621379572e-01 5.851587917777981041e+00
4.102926922117450914e+00 1.068342260552697376e-01 -1.524024838564576045e-01 1.068342260552697376e-01 4.852440352593009543e+00 5.276598406985765211e-01 -1.524024838564576045e-01 5.276598406985765211e-01 5.848656632338385286e+00
4.103905641197483689e+00 1.068458927354220961e-01 -1.523240222273011535e-01 1.068458927354220961e-01 4.853344712612730483e+00 5.276108662829919194e-01 -1.523240222273011535e-01 5.276108662829919194e-01 5.849383428050293432e+00
4.104724616503123258e+00 1.068371747766269364e-01 -1.522342785338215709e-01 1.068371747766269364e-01 4.853957149218090628e+00 5.274135583626132773e-01 -1.522342785338215709e-01 5.274135583626132773e-01 5.849728941270189608e+00
4.105671540674608266e+00 1.068412773454717191e-01 -1.520862014395802930e-01 1.068412773454717191e-01 4.854606252532500221e+00 5.271404811238825650e-01 -1.520862014395802930e-01 5.271404811238825650e-01 5.849985864644093425e+00
4.549040249107759060e+00 -4.163865851580685895e-01 -4.763114867333442110e-02 -4.163865851580685895e-01 3.426610295475632562e+00 2.948204040860955555e-01 -4.763114867333442110e-02 2.948204040860955555e-01 1.982542895045378284e+00
4.519305736072578128e+00 -4.165657455605834558e-01 -4.776418989211584504e-02 -4.165657455605834558e-01 3.397809729138131285e+00 2.947179317787224639e-01 -4.776418989211584504e-02 2.947179317787224639e-01 1.952976378114633427e+00
4.520252840692994489e+00 -4.159478548252040775e-01 -4.783423257173402554e-02 -4.159478548252040775e-01 3.398336577680838744e+00 2.946357944428514286e-01 -4.783423257173402554e-02 2.946357944428514286e-01 1.954654212626018461e+00
4.525738498299372914e+00 -4.152173907508557305e-01 -4.785363718506278202e-02 -4.152173907508557305e-01 3.403004583361198598e+00 2.943402063603640650e-01 -4.785363718506278202e-02 2.943402063603640650e-01 1.960998989551280491e+00
4.523675894229174155e+00 -4.151146526268617021e-01 -4.793989467855842845e-02 -4.151146526268617021e-01 3.401251256929466393e+00 2.941999880928172217e-01 -4.793989467855842845e-02 2.941999880928172217e-01 1.959330591529938825e+00
-4.523832044412828650e-03 3.518780394292914912e-06 2.785701145481891113e-06 3.518780394292914912e-06 -4.528963599154505956e-03 -2.932316995244095937e-07 2.785701145481891113e-06 -2.932316995244095937e-07 -4.525591434609974560e-03
-2.410511185940408634e-03 3.987951113531970008e-05 -2.639085295719686184e-06 3.987951113531970008e-05 -2.366819662711271751e-03 -3.372164544530709983e-06 -2.639085295719686184e-06 -3.372164544530709983e-06 -2.427811856212348622e-03
-1.642537364885980275e-03 2.844347485386772916e-05 -5.864633990488191873e-07 2.844347485386772916e-05 -1.779036721014592764e-03 -1.759390197146457456e-06 -5.864633990488191873e-07 -1.759390197146457456e-06 -1.605003707346855596e-03
-1.620105139872362763e-03 3.943966358603308699e-05 -1.612774347384252527e-06 3.943966358603308699e-05 -1.997494337160277827e-03 -3.225548694768505054e-06 -1.612774347384252527e-06 -3.225548694768505054e-06 -1.509703405001422633e-03
-1.347253043464899727e-03 5.630048630868663860e-05 -2.052621896670866891e-06 5.630048630868663860e-05 -2.024471653516523792e-03 -4.691707192390553499e-06 -2.052621896670866891e-06 -4.691707192390553499e-06 -1.148295335337587908e-03
6.693261055262010872e-01 1.930958500458476446e-01 1.177011325358442023e-01 1.930958500458476446e-01 3.414968535820943063e-01 -1.213491809685646183e-01 1.177011325358442023e-01 -1.213491809685646183e-01 -1.171414629936815111e+00
6.602950007105046204e-01 1.936015507179158768e-01 1.180451325856828881e-01 1.936015507179158768e-01 3.323996854548590951e-01 -1.216303546619956211e-01 1.180451325856828881e-01 -1.216303546619956211e-01 -1.181310001772508222e+00
6.603125096950772654e-01 1.934867859450868921e-01 1.179450812452678687e-01 1.934867859450868921e-01 3.323711413959759553e-01 -1.217942622990872970e-01 1.179450812452678687e-01 -1.217942622990872970e-01 -1.181442569798558218e+00
6.602062787130482668e-01 1.934588304235003720e-01 1.179468468571575612e-01 1.934588304235003720e-01 3.322449001458641082e-01 -1.218258961787773154e-01 1.179468468571575612e-01 -1.218258961787773154e-01 -1.181614128420505283e+00
6.600367799716393424e-01 1.934248423946240969e-01 1.179233053652952029e-01 1.934248423946240969e-01 3.320736357925654914e-01 -1.218722434908813546e-01 1.179233053652952029e-01 -1.218722434908813546e-01 -1.181776270445707322e+00
5.375131544208620049e-01 2.193386359036868238e-01 4.930488501994340078e-02 2.193386359036868238e-01 -7.979965818886965989e-01 3.418453245844622623e-01 4.930488501994340078e-02 3.418453245844622623e-01 1.143567027619886156e+00
5.343979708522507144e-01 2.193411046986458446e-01 4.926581997029739340e-02 2.193411046986458446e-01 -8.009636377597655343e-01 3.417583358679642802e-01 4.926581997029739340e-02 3.417583358679642802e-01 1.140340893501351038e+00
5.347976251891495281e-01 2.192979733984790902e-01 4.922936893884331810e-02 2.192979733984790902e-01 -8.002369407024101378e-01 3.417923181044593139e-01 4.922936893884331810e-02 3.417923181044593139e-01 1.140536363972813882e+00
5.347684353193397078e-01 2.193429926006733588e-01 4.917926692349806894e-02 2.193429926006733588e-01 -8.001052232301836264e-01 3.418136659196934213e-01 4.917926692349806894e-02 3.418136659196934213e-01 1.140395061767216944e+00
5.351307672853873321e-01 2.193993392150326571e-01 4.912306553237166112e-02 2.193993392150326571e-01 -7.995734157513595397e-01 3.418469220400239816e-01 4.912306553237166112e-02 3.418469220400239816e-01 1.140652397335888857e+00
9.165287036645872742e-01 -8.763788738867195338e-02 2.775105064160618973e-01 -8.763788738867195338e-02 -1.588851668231660685e+00 -9.951670066705675666e-02 2.775105064160618973e-01 -9.951670066705675666e-02 -1.743118233460471789e+00
9.311516799060880478e-01 -8.741667704240371761e-02 2.766701805745717668e-01 -8.741667704240371761e-02 -1.573354789578254254e+00 -9.915510683181061324e-02 2.766701805745717668e-01 -9.915510683181061324e-02 -1.727367783331844153e+00
9.301184027323446957e-01 -8.735970322382502484e-02 2.766236899386115833e-01 -8.735970322382502484e-02 -1.574871660524093553e+00 -9.913368467602501344e-02 2.766236899386115833e-01 -9.913368467602501344e-02 -1.728673623253667913e+00
9.293502437277209038e-01 -8.735848778236200707e-02 2.766429850718368777e-01 -8.735848778236200707e-02 -1.575861637595717069e+00 -9.914872576412979421e-02 2.766429850718368777e-01 -9.914872576412979421e-02 -1.729529901764359945e+00
9.292188241195327159e-01 -8.734997969212092428e-02 2.766970722169408980e-01 -8.734997969212092428e-02 -1.576243590075468548e+00 -9.918458128728864509e-02 2.766970722169408980e-01 -9.918458128728864509e-02 -1.729765393547818553e+00
-9.473722568973916847e-01 7.962062313497306892e-03 2.184151064136245213e-01 7.962062313497306892e-03 -4.458212031035286849e-01 1.990259677659028392e-01 2.184151064136245213e-01 1.990259677659028392e-01 7.857552757208543515e-01
-9.520664818684810848e-01 7.956885131395899716e-03 2.186136143673413079e-01 7.956885131395899716e-03 -4.504620291392294473e-01 1.992024357158165282e-01 2.186136143673413079e-01 1.992024357158165282e-01 7.810387149069843993e-01
-9.511504164755094637e-01 7.917982305891047359e-03 2.186535526292664178e-01 7.917982305891047359e-03 -4.498228690289386988e-01 1.992528762614330651e-01 2.186535526292664178e-01 1.992528762614330651e-01 7.818695786745158971e-01
-9.507229291534218252e-01 7.879375319363415148e-03 2.187130162636883035e-01 7.879375319363415148e-03 -4.496611930278861524e-01 1.993076064722193730e-01 2.187130162636883035e-01 1.993076064722193730e-01 7.823457315083566233e-01
-9.503426281482014737e-01 7.837070345620492096e-03 2.187933365460044133e-01 7.837070345620492096e-03 -4.495887124784664901e-01 1.993812703775479367e-01 2.187933365460044133e-01 1.993812703775479367e-01 7.827974776265765877e-01
7.747587616226551122e-01 2.568086603767704701e-01 -3.242958847266818045e-01 2.568086603767704701e-01 1.313023196793736691e+00 -5.178477945573311397e-03 -3.242958847266818045e-01 -5.178477945573311397e-03 8.359208501210285691e-01
7.734158621767883712e-01 2.568330664106556194e-01 -3.242124501457255836e-01 2.568330664106556194e-01 1.311587781451979628e+00 -5.192099917974326261e-03 -3.242124501457255836e-01 -5.192099917974326261e-03 8.345663152404025897e-01
7.750018286926857458e-01 2.566744271904021768e-01 -3.241376711930658572e-01 2.566744271904021768e-01 1.313124794004560725e+00 -5.179755005485906297e-03 -3.241376711930658572e-01 -5.179755005485906297e-03 8.360715431907147499e-01
7.738083452565925890e-01 2.566691770552059215e-01 -3.241656246155971144e-01 2.566691770552059215e-01 1.311905627474669878e+00 -5.178903632210843898e-03 -3.241656246155971144e-01 -5.178903632210843898e-03 8.348688365441417902e-01
7.734035172643000111e-01 2.566632174422804891e-01 -3.242124501457255836e-01 2.566632174422804891e-01 1.311462345789453643e+00 -5.180890169852657608e-03 -3.242124501457255836e-01 -5.180890169852657608e-03 8.344752182999708445e-01
2.141563222532367750e+00 3.312506659822726518e-01 6.795204195262181945e-02 3.312506659822726518e-01 1.225346153907491908e+00 2.038639299660133519e-01 6.795204195262181945e-02 2.038639299660133519e-01 1.283138361924145210e+00
2.137229991483247993e+00 3.312124815959775481e-01 6.796012477891785752e-02 3.312124815959775481e-01 1.221352958999102345e+00 2.038969580665678516e-01 6.796012477891785752e-02 2.038969580665678516e-01 1.279153667919273873e+00
2.136691508021043351e+00 3.312980480674563299e-01 6.807941614632141702e-02 3.312980480674563299e-01 1.221268786118364202e+00 2.040370139360077884e-01 6.807941614632141702e-02 2.040370139360077884e-01 1.279385143341303488e+00
2.136185355864022473e+00 3.313222965463443748e-01 6.815355517372644056e-02 3.313222965463443748e-01 1.221074658928185341e+00 2.041471076045227317e-01 6.815355517372644056e-02 2.041471076045227317e-01 1.279440608252783163e+00
2.136100904265136435e+00 3.313572756739358582e-01 6.822964522816842015e-02 3.313572756739358582e-01 1.221117860241146991e+00 2.042676532035929415e-01 6.822964522816842015e-02 2.042676532035929415e-01 1.279758904377958251e+00
-8.772597977362900368e-01 3.109812880115908965e-02 2.368623621536546098e-01 3.109812880115908965e-02 6.496648759331514755e-01 2.654770030542885073e-01 2.368623621536546098e-01 2.654770030542885073e-01 -5.174277396393858197e-01
-8.796333364708134317e-01 3.106301026700488549e-02 2.367590810637580645e-01 3.106301026700488549e-02 6.467556684181745563e-01 2.653743146822679644e-01 2.367590810637580645e-01 2.653743146822679644e-01 -5.199830945823784578e-01
-8.784329345924032362e-01 3.108405175160360717e-02 2.366966975073069301e-01 3.108405175160360717e-02 6.478962057911067385e-01 2.653528286592622409e-01 2.366966975073069301e-01 2.653528286592622409e-01 -5.187770618841461845e-01
-8.788310928256198862e-01 3.107501280399429383e-02 2.366535772818264272e-01 3.107501280399429383e-02 6.474761169964772245e-01 2.654052841912900029e-01 2.366535772818264272e-01 2.654052841912900029e-01 -5.191106138688765803e-01
-8.787409997084648650e-01 3.107901364965743110e-02 2.366039371597097596e-01 3.107901364965743110e-02 6.475094573770034945e-01 2.654672232093341355e-01 2.366039371597097596e-01 2.654672232093341355e-01 -5.189302794550973985e-01
5.178281787902835331e-01 1.712859137529894604e-01 2.684531778353138609e-01 1.712859137529894604e-01 -1.350194876701680480e+00 1.896818046836374061e-01 2.684531778353138609e-01 1.896818046836374061e-01 8.749504989791274667e-01
5.165989193549949121e-01 1.712346946098524392e-01 2.682455128280391010e-01 1.712346946098524392e-01 -1.350522737921646454e+00 1.896002062779520714e-01 2.682455128280391010e-01 1.896002062779520714e-01 8.735367625727122887e-01
5.169430709041534788e-01 1.711771647986498335e-01 2.680393154179889215e-01 1.711771647986498335e-01 -1.349563222856231315e+00 1.895638098667830895e-01 2.680393154179889215e-01 1.895638098667830895e-01 8.739265563955543881e-01
5.163360726920768196e-01 1.711984449584058876e-01 2.679412799233885645e-01 1.711984449584058876e-01 -1.349924545292917166e+00 1.895909604154373540e-01 2.679412799233885645e-01 1.895909604154373540e-01 8.734124570877922489e-01
5.159207426775274108e-01 1.712116533334268886e-01 2.678771459246754860e-01 1.712116533334268886e-01 -1.350091557857071800e+00 1.896299985016105805e-01 2.678771459246754860e-01 1.896299985016105805e-01 8.731182038442687476e-01
3.092233257358237286e-01 -4.037715393551266074e-01 2.987598265068323600e-01 -4.037715393551266074e-01 -1.619421499944560194e+00 -1.325667271454651353e-01 2.987598265068323600e-01 -1.325667271454651353e-01 1.755824903105260570e-01
3.112352848398652339e-01 -4.015141975684196618e-01 2.969324261884164762e-01 -4.015141975684196618e-01 -1.616931596198583510e+00 -1.318751534729956376e-01 2.969324261884164762e-01 -1.318751534729956376e-01 1.775694042804923933e-01
3.119680040897439555e-01 -4.013921025398030085e-01 2.968125673324851221e-01 -4.013921025398030085e-01 -1.615902360450635733e+00 -1.317886881291645551e-01 2.968125673324851221e-01 -1.317886881291645551e-01 1.782699226437030326e-01
3.116076821310548861e-01 -4.012691130421122687e-01 2.968729439949879256e-01 -4.012691130421122687e-01 -1.616100485350552063e+00 -1.317363616883288624e-01 2.968729439949879256e-01 -1.317363616883288624e-01 1.778477332407210065e-01
3.114824564606788471e-01 -4.012208117121101036e-01 2.969507628044358305e-01 -4.012208117121101036e-01 -1.616048755222432742e+00 -1.317044589580187997e-01 2.969507628044358305e-01 -1.317044589580187997e-01 1.776947790290474283e-01
-1.855525840852551900e+00 2.242955366348222485e-06 4.646121830292747362e-06 2.242955366348222485e-06 -1.855524719374868958e+00 -9.612665855778096120e-06 4.646121830292747362e-06 -9.612665855778096120e-06 -1.855514786286817763e+00
-1.854157477867982129e+00 -3.300348610483814040e-05 4.549995171734966265e-05 -3.300348610483814040e-05 -1.854173819399936862e+00 -3.332390830003073502e-05 4.549995171734966265e-05 -3.332390830003073502e-05 -1.854149787735297261e+00
-1.851748063171231307e+00 -1.137498792933741566e-05 2.435208683463784847e-05 -1.137498792933741566e-05 -1.851720346651346993e+00 -1.297709890530043112e-05 2.435208683463784847e-05 -1.297709890530043112e-05 -1.851754792037330066e+00
-1.852146828593148387e+00 -3.044010854329730890e-05 4.630100720533117631e-05 -3.044010854329730890e-05 -1.852056469534104188e+00 -3.076053073848991707e-05 4.630100720533117631e-05 -3.076053073848991707e-05 -1.852160766958639071e+00
-1.851860050728451057e+00 -3.076053073848991707e-05 5.703515074428337393e-05 -3.076053073848991707e-05 -1.851679973454752881e+00 -3.188200842166402535e-05 5.703515074428337393e-05 -3.188200842166402535e-05 -1.851885043659676100e+00
-2.088258870923657362e+00 8.172399956052453507e-02 3.215144906935997748e-01 8.172399956052453507e-02 -2.827375964326275248e+00 -3.239814555160940857e-01 3.215144906935997748e-01 -3.239814555160940857e-01 -2.548122091428629332e+00
-2.088049598465586243e+00 8.171141300530772311e-02 3.214513900967795323e-01 8.171141300530772311e-02 -2.827152594926360951e+00 -3.238965382235647339e-01 3.214513900967795323e-01 -3.238965382235647339e-01 -2.547918021413380973e+00
-2.087959478730233798e+00 8.171527288224088303e-02 3.213938275842546655e-01 8.171527288224088303e-02 -2.827119534241324672e+00 -3.238260535143506202e-01 3.213938275842546655e-01 -3.238260535143506202e-01 -2.547844683751651296e+00
-2.088083666075039702e+00 8.170419671365010406e-02 3.214037290076919295e-01 8.170419671365010406e-02 -2.827224254380728663e+00 -3.238324307023271453e-01 3.214037290076919295e-01 -3.238324307023271453e-01 -2.547912315508349401e+00
-2.088143074615663064e+00 8.171695108960312648e-02 3.214158121007000268e-01 8.171695108960312648e-02 -2.827224254380728663e+00 -3.238418286635557086e-01 3.214158121007000268e-01 -3.238418286635557086e-01 -2.547842334261343655e+00
-2.204733869974591975e+00 -7.255281052191289790e-05 8.018006125213480995e-02 -7.255281052191289790e-05 -6.967549087865343438e-01 2.971485389939425015e-01 8.018006125213480995e-02 2.971485389939425015e-01 -1.284961763434415483e+00
-2.187827660875040880e+00 -4.743237505088499103e-05 8.001264369151113443e-02 -4.743237505088499103e-05 -6.809964383411749589e-01 2.966952789626174924e-01 8.001264369151113443e-02 2.966952789626174924e-01 -1.268732557872185973e+00
-2.188025971890467325e+00 -7.036842482878003879e-05 8.003479960354147049e-02 -7.036842482878003879e-05 -6.813665356886113855e-01 2.966398891825415829e-01 8.003479960354147049e-02 2.966398891825415829e-01 -1.268958953846524240e+00
-2.187954823327890708e+00 -7.395705846749830927e-05 8.002450178527385771e-02 -7.395705846749830927e-05 -6.811867919515764980e-01 2.966377047968484781e-01 8.002450178527385771e-02 2.966377047968484781e-01 -1.268751749260775830e+00
-2.188194637671487364e+00 -8.097829819542536609e-05 8.003292727294736286e-02 -8.097829819542536609e-05 -6.811473169815506212e-01 2.967068250012812047e-01 8.003292727294736286e-02 2.967068250012812047e-01 -1.268706345243868494e+00
-3.412547711949407980e-01 -4.392057386413064646e-02 3.391707349556892237e-01 -4.392057386413064646e-02 -2.829973617373841677e+00 2.790312454549503940e-01 3.391707349556892237e-01 2.790312454549503940e-01 -1.547454112764015566e+00
-3.355009159092727788e-01 -4.382639084937526436e-02 3.388671685608148909e-01 -4.382639084937526436e-02 -2.822576142060538196e+00 2.786355503728237815e-01 3.388671685608148909e-01 2.786355503728237815e-01 -1.540699325908782669e+00
-3.354497157468889212e-01 -4.385135882979699501e-02 3.388322449932629765e-01 -4.385135882979699501e-02 -2.821773532107614280e+00 2.785391550053727960e-01 3.388322449932629765e-01 2.785391550053727960e-01 -1.540113526520027198e+00
-3.358168082691653789e-01 -4.380964017896575580e-02 3.388418845300080751e-01 -4.380964017896575580e-02 -2.821795497609377978e+00 2.784846363139456549e-01 3.388418845300080751e-01 2.784846363139456549e-01 -1.540209605837093321e+00
-3.359448086751248841e-01 -4.382338837071696191e-02 3.389302206126393879e-01 -4.382338837071696191e-02 -2.821575368516166193e+00 2.784737325756601600e-01 3.389302206126393879e-01 2.784737325756601600e-01 -1.540018079303731691e+00
-8.923641833445893345e-01 1.522269178405409040e-01 6.378889361922351897e-02 1.522269178405409040e-01 -3.041105671258641063e+00 3.336705548930241072e-01 6.378889361922351897e-02 3.336705548930241072e-01 -1.899415835086073923e+00
-8.927712154044578075e-01 1.521365201760726815e-01 6.380700549475204486e-02 1.521365201760726815e-01 -3.040689583261007911e+00 3.334470672860561091e-01 6.380700549475204486e-02 3.334470672860561091e-01 -1.899399016915940264e+00
-8.919721906099363773e-01 1.520584127128559448e-01 6.374798018610999817e-02 1.520584127128559448e-01 -3.039776712391736080e+00 3.332952186153304575e-01 6.374798018610999817e-02 3.332952186153304575e-01 -1.898386530731261290e+00
-8.922501755566643045e-01 1.520983558669233293e-01 6.378630620843372956e-02 1.520983558669233293e-01 -3.039998582866960231e+00 3.333149476226025532e-01 6.378630620843372956e-02 3.333149476226025532e-01 -1.898540966812776842e+00
-8.920132657562241940e-01 1.521001347118412783e-01 6.379099589049022634e-02 1.521001347118412783e-01 -3.039689387277580757e+00 3.333225481417975700e-01 6.379099589049022634e-02 3.333225481417975700e-01 -1.898128113078631163e+00
-1.850252125393338387e+00 3.573404401023033139e-01 -2.278138739527215129e-01 3.573404401023033139e-01 -3.059586912595464003e+00 3.518804936768376440e-02 -2.278138739527215129e-01 3.518804936768376440e-02 -1.972714941691951385e+00
-1.849428385218428339e+00 3.571941885829981178e-01 -2.276762254639636274e-01 3.571941885829981178e-01 -3.058600872940419713e+00 3.515545711734085338e-02 -2.276762254639636274e-01 3.515545711734085338e-02 -1.971914363522360603e+00
-1.848397841424590737e+00 3.571462101434070280e-01 -2.275837428855794486e-01 3.571462101434070280e-01 -3.057535917024392536e+00 3.516290204762222843e-02 -2.275837428855794486e-01 3.516290204762222843e-02 -1.970890437444328791e+00
-1.849064079963326002e+00 3.572065968001337244e-01 -2.275888716153288138e-01 3.572065968001337244e-01 -3.058124893731096972e+00 3.517365583580644300e-02 -2.275888716153288138e-01 3.517365583580644300e-02 -1.971498936412659830e+00
-1.848579497723456200e+00 3.572522590391928321e-01 -2.275973092029810463e-01 3.572522590391928321e-01 -3.057520034506458817e+00 3.518010810871696065e-02 -2.275973092029810463e-01 3.518010810871696065e-02 -1.970903011104359503e+00
-2.606770620265881799e+00 4.974104632844627422e-02 -1.165659154820907761e-01 4.974104632844627422e-02 -1.989576805643186397e+00 -8.191395581201384168e-02 -1.165659154820907761e-01 -8.191395581201384168e-02 -1.134073926910423413e+00