3.510306694000000061e+00 0.000000000000000000e+00 0.000000000000000000e+00 0.000000000000000000e+00 3.510310625999999878e+00 0.000000000000000000e+00 0.000000000000000000e+00 0.000000000000000000e+00 3.510310625999999878e+00
3.510306694000000061e+00 0.000000000000000000e+00 0.000000000000000000e+00 0.000000000000000000e+00 3.510310625999999878e+00 0.000000000000000000e+00 0.000000000000000000e+00 0.000000000000000000e+00 3.510310625999999878e+00
3.510306694000000061e+00 0.000000000000000000e+00 0.000000000000000000e+00 0.000000000000000000e+00 3.510310625999999878e+00 0.000000000000000000e+00 0.000000000000000000e+00 0.000000000000000000e+00 3.510310625999999878e+00
3.510306694000000061e+00 0.000000000000000000e+00 0.000000000000000000e+00 0.000000000000000000e+00 3.510310625999999878e+00 0.000000000000000000e+00 0.000000000000000000e+00 0.000000000000000000e+00 3.510310625999999878e+00
3.510306694000000061e+00 0.000000000000000000e+00 0.000000000000000000e+00 0.000000000000000000e+00 3.510310625999999878e+00 0.000000000000000000e+00 0.000000000000000000e+00 0.000000000000000000e+00 3.510310625999999878e+00
3.552011665000000207e+00 0.000000000000000000e+00 0.000000000000000000e+00 -2.518985199999999869e-02 3.542003644999999867e+00 0.000000000000000000e+00 -7.973134399999999566e-02 -5.583562799999999826e-02 3.521240185999999994e+00
3.552011665000000207e+00 0.000000000000000000e+00 0.000000000000000000e+00 -2.518985199999999869e-02 3.542003644999999867e+00 0.000000000000000000e+00 -7.973134399999999566e-02 -5.583562799999999826e-02 3.521240185999999994e+00
3.552011665000000207e+00 0.000000000000000000e+00 0.000000000000000000e+00 -2.518985199999999869e-02 3.542003644999999867e+00 0.000000000000000000e+00 -7.973134399999999566e-02 -5.583562799999999826e-02 3.521240185999999994e+00
3.552011665000000207e+00 0.000000000000000000e+00 0.000000000000000000e+00 -2.518985199999999869e-02 3.542003644999999867e+00 0.000000000000000000e+00 -7.973134399999999566e-02 -5.583562799999999826e-02 3.521240185999999994e+00
3.552011665000000207e+00 0.000000000000000000e+00 0.000000000000000000e+00 -2.518985199999999869e-02 3.542003644999999867e+00 0.000000000000000000e+00 -7.973134399999999566e-02 -5.583562799999999826e-02 3.521240185999999994e+00
3.539031480999999868e+00 0.000000000000000000e+00 0.000000000000000000e+00 6.671646300000000362e-02 3.488503655999999786e+00 0.000000000000000000e+00 8.925946699999999512e-02 2.815092599999999973e-02 3.439067918000000112e+00
3.539031480999999868e+00 0.000000000000000000e+00 0.000000000000000000e+00 6.671646300000000362e-02 3.488503655999999786e+00 0.000000000000000000e+00 8.925946699999999512e-02 2.815092599999999973e-02 3.439067918000000112e+00
3.539031480999999868e+00 0.000000000000000000e+00 0.000000000000000000e+00 6.671646300000000362e-02 3.488503655999999786e+00 0.000000000000000000e+00 8.925946699999999512e-02 2.815092599999999973e-02 3.439067918000000112e+00
3.539031480999999868e+00 0.000000000000000000e+00 0.000000000000000000e+00 6.671646300000000362e-02 3.488503655999999786e+00 0.000000000000000000e+00 8.925946699999999512e-02 2.815092599999999973e-02 3.439067918000000112e+00
3.539031480999999868e+00 0.000000000000000000e+00 0.000000000000000000e+00 6.671646300000000362e-02 3.488503655999999786e+00 0.000000000000000000e+00 8.925946699999999512e-02 2.815092599999999973e-02 3.439067918000000112e+00
3.573297837999999782e+00 0.000000000000000000e+00 0.000000000000000000e+00 -5.309374000000000038e-02 3.416315422999999907e+00 0.000000000000000000e+00 -3.683261899999999700e-02 1.173039099999999973e-02 3.486568282999999990e+00
3.573297837999999782e+00 0.000000000000000000e+00 0.000000000000000000e+00 -5.309374000000000038e-02 3.416315422999999907e+00 0.000000000000000000e+00 -3.683261899999999700e-02 1.173039099999999973e-02 3.486568282999999990e+00
3.573297837999999782e+00 0.000000000000000000e+00 0.000000000000000000e+00 -5.309374000000000038e-02 3.416315422999999907e+00 0.000000000000000000e+00 -3.683261899999999700e-02 1.173039099999999973e-02 3.486568282999999990e+00
3.573297837999999782e+00 0.000000000000000000e+00 0.000000000000000000e+00 -5.309374000000000038e-02 3.416315422999999907e+00 0.000000000000000000e+00 -3.683261899999999700e-02 1.173039099999999973e-02 3.486568282999999990e+00
3.573297837999999782e+00 0.000000000000000000e+00 0.000000000000000000e+00 -5.309374000000000038e-02 3.416315422999999907e+00 0.000000000000000000e+00 -3.683261899999999700e-02 1.173039099999999973e-02 3.486568282999999990e+00
3.476461762000000011e+00 0.000000000000000000e+00 0.000000000000000000e+00 -7.690752300000000541e-02 3.443577803000000159e+00 0.000000000000000000e+00 8.455442900000000039e-02 -2.948945399999999828e-02 3.517441285999999945e+00
3.476461762000000011e+00 0.000000000000000000e+00 0.000000000000000000e+00 -7.690752300000000541e-02 3.443577803000000159e+00 0.000000000000000000e+00 8.455442900000000039e-02 -2.948945399999999828e-02 3.517441285999999945e+00
3.476461762000000011e+00 0.000000000000000000e+00 0.000000000000000000e+00 -7.690752300000000541e-02 3.443577803000000159e+00 0.000000000000000000e+00 8.455442900000000039e-02 -2.948945399999999828e-02 3.517441285999999945e+00
3.476461762000000011e+00 0.000000000000000000e+00 0.000000000000000000e+00 -7.690752300000000541e-02 3.443577803000000159e+00 0.000000000000000000e+00 8.455442900000000039e-02 -2.948945399999999828e-02 3.517441285999999945e+00
3.476461762000000011e+00 0.000000000000000000e+00 0.000000000000000000e+00 -7.690752300000000541e-02 3.443577803000000159e+00 0.000000000000000000e+00 8.455442900000000039e-02 -2.948945399999999828e-02 3.517441285999999945e+00
3.456044927000000211e+00 0.000000000000000000e+00 0.000000000000000000e+00 -4.170679599999999737e-02 3.433149851000000030e+00 0.000000000000000000e+00 7.205786599999999820e-02 7.447259000000000517e-02 3.587269253000000102e+00
3.456044927000000211e+00 0.000000000000000000e+00 0.000000000000000000e+00 -4.170679599999999737e-02 3.433149851000000030e+00 0.000000000000000000e+00 7.205786599999999820e-02 7.447259000000000517e-02 3.587269253000000102e+00
3.456044927000000211e+00 0.000000000000000000e+00 0.000000000000000000e+00 -4.170679599999999737e-02 3.433149851000000030e+00 0.000000000000000000e+00 7.205786599999999820e-02 7.447259000000000517e-02 3.587269253000000102e+00
3.456044927000000211e+00 0.000000000000000000e+00 0.000000000000000000e+00 -4.170679599999999737e-02 3.433149851000000030e+00 0.000000000000000000e+00 7.205786599999999820e-02 7.447259000000000517e-02 3.587269253000000102e+00
3.456044927000000211e+00 0.000000000000000000e+00 0.000000000000000000e+00 -4.170679599999999737e-02 3.433149851000000030e+00 0.000000000000000000e+00 7.205786599999999820e-02 7.447259000000000517e-02 3.587269253000000102e+00
3.413263555999999976e+00 0.000000000000000000e+00 0.000000000000000000e+00 -8.476550600000000435e-02 3.595385058999999828e+00 0.000000000000000000e+00 7.934728100000000561e-02 2.989389799999999861e-02 3.460335227999999930e+00
3.413263555999999976e+00 0.000000000000000000e+00 0.000000000000000000e+00 -8.476550600000000435e-02 3.595385058999999828e+00 0.000000000000000000e+00 7.934728100000000561e-02 2.989389799999999861e-02 3.460335227999999930e+00
3.413263555999999976e+00 0.000000000000000000e+00 0.000000000000000000e+00 -8.476550600000000435e-02 3.595385058999999828e+00 0.000000000000000000e+00 7.934728100000000561e-02 2.989389799999999861e-02 3.460335227999999930e+00
3.413263555999999976e+00 0.000000000000000000e+00 0.000000000000000000e+00 -8.476550600000000435e-02 3.595385058999999828e+00 0.000000000000000000e+00 7.934728100000000561e-02 2.989389799999999861e-02 3.460335227999999930e+00
3.413263555999999976e+00 0.000000000000000000e+00 0.000000000000000000e+00 -8.476550600000000435e-02 3.595385058999999828e+00 0.000000000000000000e+00 7.934728100000000561e-02 2.989389799999999861e-02 3.460335227999999930e+00
3.568831936000000038e+00 0.000000000000000000e+00 0.000000000000000000e+00 5.559221599999999985e-02 3.534403447999999948e+00 0.000000000000000000e+00 6.959551299999999774e-02 -7.646735699999999969e-02 3.446295539999999935e+00
3.568831936000000038e+00 0.000000000000000000e+00 0.000000000000000000e+00 5.559221599999999985e-02 3.534403447999999948e+00 0.000000000000000000e+00 6.959551299999999774e-02 -7.646735699999999969e-02 3.446295539999999935e+00
3.568831936000000038e+00 0.000000000000000000e+00 0.000000000000000000e+00 5.559221599999999985e-02 3.534403447999999948e+00 0.000000000000000000e+00 6.959551299999999774e-02 -7.646735699999999969e-02 3.446295539999999935e+00
3.568831936000000038e+00 0.000000000000000000e+00 0.000000000000000000e+00 5.559221599999999985e-02 3.534403447999999948e+00 0.000000000000000000e+00 6.959551299999999774e-02 -7.646735699999999969e-02 3.446295539999999935e+00
3.568831936000000038e+00 0.000000000000000000e+00 0.000000000000000000e+00 5.559221599999999985e-02 3.534403447999999948e+00 0.000000000000000000e+00 6.959551299999999774e-02 -7.646735699999999969e-02 3.446295539999999935e+00
3.471146624999999819e+00 0.000000000000000000e+00 0.000000000000000000e+00 -3.545001400000000191e-02 3.416289308000000080e+00 0.000000000000000000e+00 8.407671199999999789e-02 7.967766699999999369e-02 3.413190916000000019e+00
3.471146624999999819e+00 0.000000000000000000e+00 0.000000000000000000e+00 -3.545001400000000191e-02 3.416289308000000080e+00 0.000000000000000000e+00 8.407671199999999789e-02 7.967766699999999369e-02 3.413190916000000019e+00
3.471146624999999819e+00 0.000000000000000000e+00 0.000000000000000000e+00 -3.545001400000000191e-02 3.416289308000000080e+00 0.000000000000000000e+00 8.407671199999999789e-02 7.967766699999999369e-02 3.413190916000000019e+00
3.471146624999999819e+00 0.000000000000000000e+00 0.000000000000000000e+00 -3.545001400000000191e-02 3.416289308000000080e+00 0.000000000000000000e+00 8.407671199999999789e-02 7.967766699999999369e-02 3.413190916000000019e+00
3.471146624999999819e+00 0.000000000000000000e+00 0.000000000000000000e+00 -3.545001400000000191e-02 3.416289308000000080e+00 0.000000000000000000e+00 8.407671199999999789e-02 7.967766699999999369e-02 3.413190916000000019e+00
3.539557223000000086e+00 0.000000000000000000e+00 0.000000000000000000e+00 -7.538001799999999308e-02 3.528670779000000035e+00 0.000000000000000000e+00 -2.031704900000000022e-02 1.748315999999999976e-03 3.569014472000000104e+00
3.539557223000000086e+00 0.000000000000000000e+00 0.000000000000000000e+00 -7.538001799999999308e-02 3.528670779000000035e+00 0.000000000000000000e+00 -2.031704900000000022e-02 1.748315999999999976e-03 3.569014472000000104e+00
3.539557223000000086e+00 0.000000000000000000e+00 0.000000000000000000e+00 -7.538001799999999308e-02 3.528670779000000035e+00 0.000000000000000000e+00 -2.031704900000000022e-02 1.748315999999999976e-03 3.569014472000000104e+00
3.539557223000000086e+00 0.000000000000000000e+00 0.000000000000000000e+00 -7.538001799999999308e-02 3.528670779000000035e+00 0.000000000000000000e+00 -2.031704900000000022e-02 1.748315999999999976e-03 3.569014472000000104e+00
3.539557223000000086e+00 0.000000000000000000e+00 0.000000000000000000e+00 -7.538001799999999308e-02 3.528670779000000035e+00 0.000000000000000000e+00 -2.031704900000000022e-02 1.748315999999999976e-03 3.569014472000000104e+00
3.618872881000000152e+00 0.000000000000000000e+00 0.000000000000000000e+00 0.000000000000000000e+00 3.618876934000000212e+00 0.000000000000000000e+00 0.000000000000000000e+00 0.000000000000000000e+00 3.618876934000000212e+00
3.618872881000000152e+00 0.000000000000000000e+00 0.000000000000000000e+00 0.000000000000000000e+00 3.618876934000000212e+00 0.000000000000000000e+00 0.000000000000000000e+00 0.000000000000000000e+00 3.618876934000000212e+00
3.618872881000000152e+00 0.000000000000000000e+00 0.000000000000000000e+00 0.000000000000000000e+00 3.618876934000000212e+00 0.000000000000000000e+00 0.000000000000000000e+00 0.000000000000000000e+00 3.618876934000000212e+00
3.618872881000000152e+00 0.000000000000000000e+00 0.000000000000000000e+00 0.000000000000000000e+00 3.618876934000000212e+00 0.000000000000000000e+00 0.000000000000000000e+00 0.000000000000000000e+00 3.618876934000000212e+00
3.618872881000000152e+00 0.000000000000000000e+00 0.000000000000000000e+00 0.000000000000000000e+00 3.618876934000000212e+00 0.000000000000000000e+00 0.000000000000000000e+00 0.000000000000000000e+00 3.618876934000000212e+00
3.552215716000000079e+00 0.000000000000000000e+00 0.000000000000000000e+00 -5.603617899999999846e-02 3.606673310000000132e+00 0.000000000000000000e+00 3.288012600000000257e-02 -7.505528100000000147e-02 3.608791339000000153e+00
3.552215716000000079e+00 0.000000000000000000e+00 0.000000000000000000e+00 -5.603617899999999846e-02 3.606673310000000132e+00 0.000000000000000000e+00 3.288012600000000257e-02 -7.505528100000000147e-02 3.608791339000000153e+00
3.552215716000000079e+00 0.000000000000000000e+00 0.000000000000000000e+00 -5.603617899999999846e-02 3.606673310000000132e+00 0.000000000000000000e+00 3.288012600000000257e-02 -7.505528100000000147e-02 3.608791339000000153e+00
3.552215716000000079e+00 0.000000000000000000e+00 0.000000000000000000e+00 -5.603617899999999846e-02 3.606673310000000132e+00 0.000000000000000000e+00 3.288012600000000257e-02 -7.505528100000000147e-02 3.608791339000000153e+00
3.552215716000000079e+00 0.000000000000000000e+00 0.000000000000000000e+00 -5.603617899999999846e-02 3.606673310000000132e+00 0.000000000000000000e+00 3.288012600000000257e-02 -7.505528100000000147e-02 3.608791339000000153e+00
3.583028811000000147e+00 0.000000000000000000e+00 0.000000000000000000e+00 -3.623947500000000016e-02 3.713223133000000065e+00 0.000000000000000000e+00 6.059129500000000335e-02 6.839361900000000272e-02 3.698340534999999818e+00
3.583028811000000147e+00 0.000000000000000000e+00 0.000000000000000000e+00 -3.623947500000000016e-02 3.713223133000000065e+00 0.000000000000000000e+00 6.059129500000000335e-02 6.839361900000000272e-02 3.698340534999999818e+00
3.583028811000000147e+00 0.000000000000000000e+00 0.000000000000000000e+00 -3.623947500000000016e-02 3.713223133000000065e+00 0.000000000000000000e+00 6.059129500000000335e-02 6.839361900000000272e-02 3.698340534999999818e+00
3.583028811000000147e+00 0.000000000000000000e+00 0.000000000000000000e+00 -3.623947500000000016e-02 3.713223133000000065e+00 0.000000000000000000e+00 6.059129500000000335e-02 6.839361900000000272e-02 3.698340534999999818e+00
3.583028811000000147e+00 0.000000000000000000e+00 0.000000000000000000e+00 -3.623947500000000016e-02 3.713223133000000065e+00 0.000000000000000000e+00 6.059129500000000335e-02 6.839361900000000272e-02 3.698340534999999818e+00
3.713107937999999830e+00 0.000000000000000000e+00 0.000000000000000000e+00 -5.426398000000000332e-02 3.538567250999999914e+00 0.000000000000000000e+00 7.248303200000000279e-02 1.056139350000000060e-01 3.639096476000000191e+00
3.713107937999999830e+00 0.000000000000000000e+00 0.000000000000000000e+00 -5.426398000000000332e-02 3.538567250999999914e+00 0.000000000000000000e+00 7.248303200000000279e-02 1.056139350000000060e-01 3.639096476000000191e+00
3.713107937999999830e+00 0.000000000000000000e+00 0.000000000000000000e+00 -5.426398000000000332e-02 3.538567250999999914e+00 0.000000000000000000e+00 7.248303200000000279e-02 1.056139350000000060e-01 3.639096476000000191e+00
3.713107937999999830e+00 0.000000000000000000e+00 0.000000000000000000e+00 -5.426398000000000332e-02 3.538567250999999914e+00 0.000000000000000000e+00 7.248303200000000279e-02 1.056139350000000060e-01 3.639096476000000191e+00
3.713107937999999830e+00 0.000000000000000000e+00 0.000000000000000000e+00 -5.426398000000000332e-02 3.538567250999999914e+00 0.000000000000000000e+00 7.248303200000000279e-02 1.056139350000000060e-01 3.639096476000000191e+00
3.628495000000000026e+00 0.000000000000000000e+00 0.000000000000000000e+00 -3.841698300000000177e-02 3.724248595000000162e+00 0.000000000000000000e+00 -3.212441999999999815e-03 -9.151398900000000391e-02 3.647486429000000197e+00
3.628495000000000026e+00 0.000000000000000000e+00 0.000000000000000000e+00 -3.841698300000000177e-02 3.724248595000000162e+00 0.000000000000000000e+00 -3.212441999999999815e-03 -9.151398900000000391e-02 3.647486429000000197e+00
3.628495000000000026e+00 0.000000000000000000e+00 0.000000000000000000e+00 -3.841698300000000177e-02 3.724248595000000162e+00 0.000000000000000000e+00 -3.212441999999999815e-03 -9.151398900000000391e-02 3.647486429000000197e+00
3.628495000000000026e+00 0.000000000000000000e+00 0.000000000000000000e+00 -3.841698300000000177e-02 3.724248595000000162e+00 0.000000000000000000e+00 -3.212441999999999815e-03 -9.151398900000000391e-02 3.647486429000000197e+00
3.628495000000000026e+00 0.000000000000000000e+00 0.000000000000000000e+00 -3.841698300000000177e-02 3.724248595000000162e+00 0.000000000000000000e+00 -3.212441999999999815e-03 -9.151398900000000391e-02 3.647486429000000197e+00
3.716317087000000186e+00 0.000000000000000000e+00 0.000000000000000000e+00 1.565193800000000066e-02 3.726530517000000042e+00 0.000000000000000000e+00 6.786473599999999495e-02 8.021151299999999817e-02 3.703862258000000018e+00
3.716317087000000186e+00 0.000000000000000000e+00 0.000000000000000000e+00 1.565193800000000066e-02 3.726530517000000042e+00 0.000000000000000000e+00 6.786473599999999495e-02 8.021151299999999817e-02 3.703862258000000018e+00
3.716317087000000186e+00 0.000000000000000000e+00 0.000000000000000000e+00 1.565193800000000066e-02 3.726530517000000042e+00 0.000000000000000000e+00 6.786473599999999495e-02 8.021151299999999817e-02 3.703862258000000018e+00
3.716317087000000186e+00 0.000000000000000000e+00 0.000000000000000000e+00 1.565193800000000066e-02 3.726530517000000042e+00 0.000000000000000000e+00 6.786473599999999495e-02 8.021151299999999817e-02 3.703862258000000018e+00
3.716317087000000186e+00 0.000000000000000000e+00 0.000000000000000000e+00 1.565193800000000066e-02 3.726530517000000042e+00 0.000000000000000000e+00 6.786473599999999495e-02 8.021151299999999817e-02 3.703862258000000018e+00
3.661947135000000131e+00 0.000000000000000000e+00 0.000000000000000000e+00 3.607580999999999895e-03 3.531912682999999831e+00 0.000000000000000000e+00 6.878632199999999697e-02 3.811504000000000281e-02 3.520907026999999800e+00
3.661947135000000131e+00 0.000000000000000000e+00 0.000000000000000000e+00 3.607580999999999895e-03 3.531912682999999831e+00 0.000000000000000000e+00 6.878632199999999697e-02 3.811504000000000281e-02 3.520907026999999800e+00
3.661947135000000131e+00 0.000000000000000000e+00 0.000000000000000000e+00 3.607580999999999895e-03 3.531912682999999831e+00 0.000000000000000000e+00 6.878632199999999697e-02 3.811504000000000281e-02 3.520907026999999800e+00
3.661947135000000131e+00 0.000000000000000000e+00 0.000000000000000000e+00 3.607580999999999895e-03 3.531912682999999831e+00 0.000000000000000000e+00 6.878632199999999697e-02 3.811504000000000281e-02 3.520907026999999800e+00
3.661947135000000131e+00 0.000000000000000000e+00 0.000000000000000000e+00 3.607580999999999895e-03 3.531912682999999831e+00 0.000000000000000000e+00 6.878632199999999697e-02 3.811504000000000281e-02 3.520907026999999800e+00
3.610398239999999870e+00 0.000000000000000000e+00 0.000000000000000000e+00 -7.247607400000000144e-02 3.575076618999999845e+00 0.000000000000000000e+00 1.009323570000000003e-01 1.001366499999999972e-02 3.560574657000000087e+00
3.610398239999999870e+00 0.000000000000000000e+00 0.000000000000000000e+00 -7.247607400000000144e-02 3.575076618999999845e+00 0.000000000000000000e+00 1.009323570000000003e-01 1.001366499999999972e-02 3.560574657000000087e+00
3.610398239999999870e+00 0.000000000000000000e+00 0.000000000000000000e+00 -7.247607400000000144e-02 3.575076618999999845e+00 0.000000000000000000e+00 1.009323570000000003e-01 1.001366499999999972e-02 3.560574657000000087e+00
3.610398239999999870e+00 0.000000000000000000e+00 0.000000000000000000e+00 -7.247607400000000144e-02 3.575076618999999845e+00 0.000000000000000000e+00 1.009323570000000003e-01 1.001366499999999972e-02 3.560574657000000087e+00
3.610398239999999870e+00 0.000000000000000000e+00 0.000000000000000000e+00 -7.247607400000000144e-02 3.575076618999999845e+00 0.000000000000000000e+00 1.009323570000000003e-01 1.001366499999999972e-02 3.560574657000000087e+00
3.665252177999999805e+00 0.000000000000000000e+00 0.000000000000000000e+00 4.047340099999999913e-02 3.574445111000000175e+00 0.000000000000000000e+00 9.673938399999999771e-02 -3.728297299999999703e-02 3.601508491999999784e+00
3.665252177999999805e+00 0.000000000000000000e+00 0.000000000000000000e+00 4.047340099999999913e-02 3.574445111000000175e+00 0.000000000000000000e+00 9.673938399999999771e-02 -3.728297299999999703e-02 3.601508491999999784e+00
3.665252177999999805e+00 0.000000000000000000e+00 0.000000000000000000e+00 4.047340099999999913e-02 3.574445111000000175e+00 0.000000000000000000e+00 9.673938399999999771e-02 -3.728297299999999703e-02 3.601508491999999784e+00
3.665252177999999805e+00 0.000000000000000000e+00 0.000000000000000000e+00 4.047340099999999913e-02 3.574445111000000175e+00 0.000000000000000000e+00 9.673938399999999771e-02 -3.728297299999999703e-02 3.601508491999999784e+00
3.665252177999999805e+00 0.000000000000000000e+00 0.000000000000000000e+00 4.047340099999999913e-02 3.574445111000000175e+00 0.000000000000000000e+00 9.673938399999999771e-02 -3.728297299999999703e-02 3.601508491999999784e+00
3.686080855000000156e+00 0.000000000000000000e+00 0.000000000000000000e+00 -1.557957700000000070e-02 3.535229183000000219e+00 0.000000000000000000e+00 6.963042699999999474e-02 -3.769880700000000084e-02 3.645891815000000147e+00
3.686080855000000156e+00 0.000000000000000000e+00 0.000000000000000000e+00 -1.557957700000000070e-02 3.535229183000000219e+00 0.000000000000000000e+00 6.963042699999999474e-02 -3.769880700000000084e-02 3.645891815000000147e+00
3.686080855000000156e+00 0.000000000000000000e+00 0.000000000000000000e+00 -1.557957700000000070e-02 3.535229183000000219e+00 0.000000000000000000e+00 6.963042699999999474e-02 -3.769880700000000084e-02 3.645891815000000147e+00
3.686080855000000156e+00 0.000000000000000000e+00 0.000000000000000000e+00 -1.557957700000000070e-02 3.535229183000000219e+00 0.000000000000000000e+00 6.963042699999999474e-02 -3.769880700000000084e-02 3.645891815000000147e+00
3.686080855000000156e+00 0.000000000000000000e+00 0.000000000000000000e+00 -1.557957700000000070e-02 3.535229183000000219e+00 0.000000000000000000e+00 6.963042699999999474e-02 -3.769880700000000084e-02 3.645891815000000147e+00
3.727439067000000161e+00 0.000000000000000000e+00 0.000000000000000000e+00 0.000000000000000000e+00 3.727443242000000101e+00 0.000000000000000000e+00 0.000000000000000000e+00 0.000000000000000000e+00 3.727443242000000101e+00
3.727439067000000161e+00 0.000000000000000000e+00 0.000000000000000000e+00 0.000000000000000000e+00 3.727443242000000101e+00 0.000000000000000000e+00 0.000000000000000000e+00 0.000000000000000000e+00 3.727443242000000101e+00
3.727439067000000161e+00 0.000000000000000000e+00 0.000000000000000000e+00 0.000000000000000000e+00 3.727443242000000101e+00 0.000000000000000000e+00 0.000000000000000000e+00 0.000000000000000000e+00 3.727443242000000101e+00
3.727439067000000161e+00 0.000000000000000000e+00 0.000000000000000000e+00 0.000000000000000000e+00 3.727443242000000101e+00 0.000000000000000000e+00 0.000000000000000000e+00 0.000000000000000000e+00 3.727443242000000101e+00
3.727439067000000161e+00 0.000000000000000000e+00 0.000000000000000000e+00 0.000000000000000000e+00 3.727443242000000101e+00 0.000000000000000000e+00 0.000000000000000000e+00 0.000000000000000000e+00 3.727443242000000101e+00
3.681158544000000088e+00 0.000000000000000000e+00 0.000000000000000000e+00 -6.071197500000000136e-02 3.800086433999999791e+00 0.000000000000000000e+00 -8.598639099999999535e-02 2.468196300000000121e-02 3.634632021999999907e+00
3.681158544000000088e+00 0.000000000000000000e+00 0.000000000000000000e+00 -6.071197500000000136e-02 3.800086433999999791e+00 0.000000000000000000e+00 -8.598639099999999535e-02 2.468196300000000121e-02 3.634632021999999907e+00
3.681158544000000088e+00 0.000000000000000000e+00 0.000000000000000000e+00 -6.071197500000000136e-02 3.800086433999999791e+00 0.000000000000000000e+00 -8.598639099999999535e-02 2.468196300000000121e-02 3.634632021999999907e+00
3.681158544000000088e+00 0.000000000000000000e+00 0.000000000000000000e+00 -6.071197500000000136e-02 3.800086433999999791e+00 0.000000000000000000e+00 -8.598639099999999535e-02 2.468196300000000121e-02 3.634632021999999907e+00
3.681158544000000088e+00 0.000000000000000000e+00 0.000000000000000000e+00 -6.071197500000000136e-02 3.800086433999999791e+00 0.000000000000000000e+00 -8.598639099999999535e-02 2.468196300000000121e-02 3.634632021999999907e+00
3.814865057000000004e+00 0.000000000000000000e+00 0.000000000000000000e+00 -8.073454000000000741e-03 3.801790057999999917e+00 0.000000000000000000e+00 3.817420900000000061e-02 9.542204499999999701e-02 3.699664993999999929e+00
3.814865057000000004e+00 0.000000000000000000e+00 0.000000000000000000e+00 -8.073454000000000741e-03 3.801790057999999917e+00 0.000000000000000000e+00 3.817420900000000061e-02 9.542204499999999701e-02 3.699664993999999929e+00
3.814865057000000004e+00 0.000000000000000000e+00 0.000000000000000000e+00 -8.073454000000000741e-03 3.801790057999999917e+00 0.000000000000000000e+00 3.817420900000000061e-02 9.542204499999999701e-02 3.699664993999999929e+00
3.814865057000000004e+00 0.000000000000000000e+00 0.000000000000000000e+00 -8.073454000000000741e-03 3.801790057999999917e+00 0.000000000000000000e+00 3.817420900000000061e-02 9.542204499999999701e-02 3.699664993999999929e+00
3.705261754999999990e+00 0.000000000000000000e+00 0.000000000000000000e+00 8.372347600000000500e-02 3.804524762999999865e+00 0.000000000000000000e+00 5.296271200000000207e-02 1.633125900000000075e-02 3.617125479999999893e+00
3.705261754999999990e+00 0.000000000000000000e+00 0.000000000000000000e+00 8.372347600000000500e-02 3.804524762999999865e+00 0.000000000000000000e+00 5.296271200000000207e-02 1.633125900000000075e-02 3.617125479999999893e+00
3.705261754999999990e+00 0.000000000000000000e+00 0.000000000000000000e+00 8.372347600000000500e-02 3.804524762999999865e+00 0.000000000000000000e+00 5.296271200000000207e-02 1.633125900000000075e-02 3.617125479999999893e+00
3.705261754999999990e+00 0.000000000000000000e+00 0.000000000000000000e+00 8.372347600000000500e-02 3.804524762999999865e+00 0.000000000000000000e+00 5.296271200000000207e-02 1.633125900000000075e-02 3.617125479999999893e+00
3.705261754999999990e+00 0.000000000000000000e+00 0.000000000000000000e+00 8.372347600000000500e-02 3.804524762999999865e+00 0.000000000000000000e+00 5.296271200000000207e-02 1.633125900000000075e-02 3.617125479999999893e+00
3.657093963999999975e+00 0.000000000000000000e+00 0.000000000000000000e+00 -5.216593399999999714e-02 3.642187428000000171e+00 0.000000000000000000e+00 -9.935591300000000403e-02 -4.555708099999999927e-02 3.713987514999999906e+00
3.657093963999999975e+00 0.000000000000000000e+00 0.000000000000000000e+00 -5.216593399999999714e-02 3.642187428000000171e+00 0.000000000000000000e+00 -9.935591300000000403e-02 -4.555708099999999927e-02 3.713987514999999906e+00
3.657093963999999975e+00 0.000000000000000000e+00 0.000000000000000000e+00 -5.216593399999999714e-02 3.642187428000000171e+00 0.000000000000000000e+00 -9.935591300000000403e-02 -4.555708099999999927e-02 3.713987514999999906e+00
3.657093963999999975e+00 0.000000000000000000e+00 0.000000000000000000e+00 -5.216593399999999714e-02 3.642187428000000171e+00 0.000000000000000000e+00 -9.935591300000000403e-02 -4.555708099999999927e-02 3.713987514999999906e+00
3.657093963999999975e+00 0.000000000000000000e+00 0.000000000000000000e+00 -5.216593399999999714e-02 3.642187428000000171e+00 0.000000000000000000e+00 -9.935591300000000403e-02 -4.555708099999999927e-02 3.713987514999999906e+00
3.773388718000000086e+00 0.000000000000000000e+00 0.000000000000000000e+00 1.001395919999999995e-01 3.772938141000000023e+00 0.000000000000000000e+00 -1.697046300000000160e-02 7.643926199999999394e-02 3.714311439999999909e+00
3.773388718000000086e+00 0.000000000000000000e+00 0.000000000000000000e+00 1.001395919999999995e-01 3.772938141000000023e+00 0.000000000000000000e+00 -1.697046300000000160e-02 7.643926199999999394e-02 3.714311439999999909e+00
3.773388718000000086e+00 0.000000000000000000e+00 0.000000000000000000e+00 1.001395919999999995e-01 3.772938141000000023e+00 0.000000000000000000e+00 -1.697046300000000160e-02 7.643926199999999394e-02 3.714311439999999909e+00
3.773388718000000086e+00 0.000000000000000000e+00 0.000000000000000000e+00 1.001395919999999995e-01 3.772938141000000023e+00 0.000000000000000000e+00 -1.697046300000000160e-02 7.643926199999999394e-02 3.714311439999999909e+00
3.773388718000000086e+00 0.000000000000000000e+00 0.000000000000000000e+00 1.001395919999999995e-01 3.772938141000000023e+00 0.000000000000000000e+00 -1.697046300000000160e-02 7.643926199999999394e-02 3.714311439999999909e+00
3.730744016000000052e+00 0.000000000000000000e+00 0.000000000000000000e+00 9.181314200000000036e-02 3.743052861999999870e+00 0.000000000000000000e+00 -2.822161600000000145e-02 6.433145299999999678e-02 3.658280895999999949e+00
3.730744016000000052e+00 0.000000000000000000e+00 0.000000000000000000e+00 9.181314200000000036e-02 3.743052861999999870e+00 0.000000000000000000e+00 -2.822161600000000145e-02 6.433145299999999678e-02 3.658280895999999949e+00
3.730744016000000052e+00 0.000000000000000000e+00 0.000000000000000000e+00 9.181314200000000036e-02 3.743052861999999870e+00 0.000000000000000000e+00 -2.822161600000000145e-02 6.433145299999999678e-02 3.658280895999999949e+00