0.000000000000000000e+00 0.000000000000000000e+00 0.000000000000000000e+00 0.000000000000000000e+00 1.755160000000000053e+00 1.755160000000000053e+00 1.755149999999999988e+00 0.000000000000000000e+00 1.755160000000000053e+00 1.755149999999999988e+00 1.755160000000000053e+00 0.000000000000000000e+00
3.507940000000000058e+00 5.299999999999999807e-04 1.459999999999999926e-03 2.840000000000000076e-03 1.754369999999999985e+00 1.751959999999999962e+00 1.753900000000000015e+00 8.599999999999999789e-04 1.754559999999999897e+00 1.755929999999999991e+00 1.754550000000000054e+00 2.330000000000000040e-03
3.505570000000000075e+00 1.069999999999999988e-03 2.919999999999999853e-03 5.680000000000000153e-03 1.753579999999999917e+00 1.748780000000000001e+00 1.752650000000000041e+00 1.729999999999999984e-03 1.753959999999999964e+00 1.756709999999999994e+00 1.753940000000000055e+00 4.649999999999999620e-03
3.503200000000000092e+00 1.600000000000000077e-03 4.369999999999999753e-03 8.519999999999999796e-03 1.752799999999999914e+00 1.745589999999999975e+00 1.751409999999999911e+00 2.579999999999999828e-03 1.753370000000000095e+00 1.757479999999999931e+00 1.753330000000000055e+00 6.969999999999999633e-03
3.500830000000000108e+00 2.119999999999999923e-03 5.810000000000000060e-03 1.136000000000000031e-02 1.752019999999999911e+00 1.742420000000000080e+00 1.750159999999999938e+00 3.439999999999999915e-03 1.752790000000000070e+00 1.758259999999999934e+00 1.752729999999999899e+00 9.280000000000000054e-03
3.524259999999999948e+00 3.538720000000000088e+00 2.530000000000000131e-03 3.496519999999999850e+00 1.743300000000000072e+00 1.758150000000000102e+00 1.707699999999999996e+00 3.511340000000000128e+00 1.755109999999999948e+00 1.685019999999999962e+00 1.716630000000000100e+00 3.518190000000000150e+00
3.523800000000000043e+00 3.540220000000000145e+00 4.980000000000000052e-03 3.498650000000000038e+00 1.743460000000000010e+00 1.759910000000000085e+00 1.704990000000000006e+00 3.510569999999999968e+00 1.752250000000000085e+00 1.686069999999999958e+00 1.715729999999999977e+00 3.516840000000000188e+00
3.523340000000000138e+00 3.541720000000000201e+00 7.429999999999999973e-03 -5.124000000000000082e-02 1.743619999999999948e+00 1.761660000000000004e+00 1.702280000000000015e+00 3.509809999999999874e+00 1.749390000000000001e+00 1.687110000000000110e+00 1.714830000000000076e+00 3.515489999999999782e+00
3.548070000000000057e+00 1.219999999999999947e-03 9.879999999999999893e-03 -4.911000000000000087e-02 1.743780000000000108e+00 1.763419999999999987e+00 1.699570000000000025e+00 3.509049999999999780e+00 1.746539999999999981e+00 1.688150000000000039e+00 1.713929999999999954e+00 3.514130000000000198e+00
3.547610000000000152e+00 2.729999999999999788e-03 1.231999999999999935e-02 -4.698000000000000093e-02 1.743929999999999980e+00 1.765190000000000037e+00 1.696860000000000035e+00 3.508290000000000131e+00 1.743700000000000028e+00 1.689179999999999904e+00 1.713030000000000053e+00 3.512779999999999792e+00
1.591599999999999959e-01 3.514279999999999848e+00 3.437570000000000014e+00 8.064000000000000334e-02 1.764380000000000059e+00 1.718040000000000012e+00 1.815139999999999976e+00 1.477999999999999974e-02 1.720630000000000104e+00 1.892919999999999936e+00 1.779160000000000075e+00 3.435210000000000097e+00
1.607999999999999985e-01 3.513949999999999907e+00 3.434180000000000010e+00 3.616779999999999884e+00 1.765900000000000025e+00 1.720660000000000078e+00 1.882719999999999949e+00 3.501640000000000086e+00 1.721130000000000049e+00 1.893310000000000048e+00 1.779609999999999914e+00 3.435490000000000155e+00
1.624400000000000011e-01 3.513630000000000031e+00 3.430790000000000006e+00 3.613890000000000047e+00 1.767419999999999991e+00 1.723260000000000014e+00 1.883580000000000032e+00 3.500000000000000000e+00 1.721629999999999994e+00 1.893690000000000095e+00 1.780049999999999910e+00 3.435770000000000213e+00
1.640800000000000036e-01 3.513320000000000221e+00 3.427410000000000068e+00 3.611000000000000210e+00 1.768920000000000048e+00 1.725870000000000015e+00 1.884449999999999958e+00 3.498369999999999980e+00 1.722120000000000095e+00 1.894079999999999986e+00 1.780480000000000063e+00 3.436059999999999892e+00
1.657200000000000062e-01 3.513020000000000032e+00 3.424040000000000195e+00 3.608109999999999928e+00 1.770410000000000039e+00 1.728460000000000107e+00 1.885310000000000041e+00 3.496750000000000025e+00 1.722609999999999975e+00 1.894470000000000098e+00 1.780909999999999993e+00 3.436350000000000016e+00
-3.606000000000000177e-02 1.582000000000000073e-02 3.483820000000000139e+00 3.525279999999999969e+00 1.711889999999999912e+00 1.746750000000000025e+00 1.764399999999999968e+00 8.149999999999999259e-03 1.742709999999999981e+00 1.764180000000000081e+00 1.710150000000000059e+00 3.350000000000000113e-03
-3.465000000000000024e-02 1.839999999999999969e-02 3.480309999999999793e+00 3.523519999999999985e+00 1.710720000000000018e+00 1.748680000000000012e+00 1.765779999999999905e+00 6.610000000000000424e-03 1.743859999999999966e+00 1.763139999999999930e+00 1.710280000000000022e+00 3.789999999999999966e-03
-3.323000000000000259e-02 2.096999999999999906e-02 3.476809999999999956e+00 3.521770000000000067e+00 1.709559999999999969e+00 1.750599999999999934e+00 1.714069999999999983e+00 3.421390000000000153e+00 1.744990000000000041e+00 1.762110000000000065e+00 1.710399999999999920e+00 4.230000000000000253e-03
-3.182000000000000106e-02 2.353999999999999843e-02 3.473320000000000185e+00 3.520020000000000149e+00 1.708399999999999919e+00 1.752520000000000078e+00 1.715440000000000076e+00 3.419849999999999834e+00 1.746129999999999960e+00 1.761069999999999913e+00 1.710530000000000106e+00 4.669999999999999672e-03
-3.039999999999999994e-02 2.611000000000000126e-02 3.469840000000000035e+00 3.518269999999999786e+00 1.707249999999999934e+00 1.754429999999999934e+00 1.716809999999999947e+00 3.418299999999999894e+00 1.747249999999999970e+00 1.760019999999999918e+00 1.710669999999999913e+00 5.120000000000000419e-03
3.472649999999999793e+00 2.569999999999999802e-03 2.469999999999999973e-03 5.930000000000000375e-03 1.704679999999999973e+00 1.761360000000000037e+00 1.779630000000000045e+00 -1.384999999999999946e-02 1.758979999999999988e+00 1.703109999999999902e+00 1.717100000000000071e+00 9.499999999999999981e-04
3.472560000000000091e+00 3.710000000000000190e-03 6.100000000000000387e-03 7.060000000000000303e-03 1.703689999999999927e+00 1.761900000000000022e+00 1.780499999999999972e+00 -1.251999999999999988e-02 1.757880000000000109e+00 1.785749999999999948e+00 1.686129999999999907e+00 3.515320000000000000e+00
3.472480000000000011e+00 4.839999999999999684e-03 9.719999999999999474e-03 8.189999999999999364e-03 1.702709999999999946e+00 1.762440000000000007e+00 1.781360000000000054e+00 -1.119999999999999989e-02 1.756780000000000008e+00 1.783840000000000092e+00 1.684649999999999981e+00 3.512259999999999938e+00
3.472389999999999866e+00 5.969999999999999613e-03 1.333999999999999943e-02 9.320000000000000159e-03 1.701729999999999965e+00 1.762969999999999926e+00 1.782229999999999981e+00 -9.889999999999999486e-03 1.755689999999999973e+00 1.781930000000000014e+00 1.683189999999999964e+00 3.509199999999999875e+00
3.472309999999999786e+00 7.089999999999999948e-03 1.694999999999999979e-02 1.043999999999999963e-02 1.700769999999999893e+00 1.763509999999999911e+00 1.783099999999999907e+00 -8.580000000000000820e-03 1.754599999999999937e+00 1.780019999999999936e+00 1.681729999999999947e+00 3.506139999999999812e+00
3.484319999999999862e+00 3.504750000000000032e+00 3.585809999999999942e+00 2.147999999999999909e-02 1.752750000000000030e+00 1.790939999999999976e+00 1.720739999999999936e+00 3.469640000000000057e+00 1.793220000000000036e+00 1.779199999999999893e+00 1.791029999999999900e+00 3.587260000000000115e+00
3.482439999999999980e+00 3.506660000000000110e+00 3.584229999999999805e+00 2.295000000000000165e-02 1.753900000000000015e+00 1.793279999999999985e+00 1.720089999999999897e+00 3.467909999999999826e+00 1.790510000000000046e+00 1.708190000000000097e+00 1.715230000000000032e+00 1.949999999999999910e-03
3.522260000000000169e+00 7.541000000000000481e-02 3.582660000000000178e+00 2.442000000000000073e-02 1.755039999999999933e+00 1.795609999999999928e+00 1.719449999999999923e+00 3.466190000000000104e+00 1.787809999999999899e+00 1.709249999999999936e+00 1.713910000000000045e+00 3.899999999999999821e-03
3.520379999999999843e+00 7.731999999999999984e-02 3.581080000000000041e+00 2.588000000000000023e-02 1.756180000000000074e+00 1.797940000000000094e+00 1.718809999999999949e+00 3.464469999999999938e+00 1.785109999999999975e+00 1.710309999999999997e+00 1.712579999999999991e+00 5.850000000000000165e-03
3.518499999999999961e+00 7.921999999999999875e-02 3.579499999999999904e+00 2.733999999999999972e-02 1.757319999999999993e+00 1.800259999999999971e+00 1.718180000000000041e+00 3.462750000000000217e+00 1.782410000000000050e+00 1.711370000000000058e+00 1.711249999999999938e+00 7.790000000000000049e-03
8.130000000000000074e-03 5.409999999999999878e-03 1.559999999999999972e-03 3.404630000000000045e+00 1.814230000000000009e+00 1.726269999999999971e+00 1.747610000000000108e+00 1.576999999999999930e-02 1.730569999999999942e+00 1.662009999999999987e+00 1.799360000000000070e+00 3.000000000000000076e-05
8.590000000000000413e-03 8.210000000000000284e-03 5.800000000000000034e-04 3.407059999999999977e+00 1.814470000000000027e+00 1.724979999999999958e+00 1.663229999999999986e+00 3.610279999999999934e+00 1.731249999999999956e+00 1.658740000000000103e+00 1.797190000000000065e+00 1.619999999999999912e-03
8.840000000000000635e-02 4.089999999999999886e-02 3.459940000000000015e+00 3.409479999999999844e+00 1.814720000000000111e+00 1.723689999999999944e+00 1.663620000000000099e+00 3.609399999999999942e+00 1.731929999999999970e+00 1.655469999999999997e+00 1.795020000000000060e+00 3.210000000000000180e-03
8.884999999999999842e-02 4.368999999999999967e-02 3.458950000000000191e+00 -1.360000000000000098e-03 1.814969999999999972e+00 1.722409999999999997e+00 1.664009999999999989e+00 3.608519999999999950e+00 1.732599999999999918e+00 1.652199999999999891e+00 1.792859999999999898e+00 4.799999999999999580e-03
8.930000000000000437e-02 4.646999999999999742e-02 3.457959999999999923e+00 1.049999999999999935e-03 1.815220000000000056e+00 1.721130000000000049e+00 1.664409999999999945e+00 3.607639999999999958e+00 1.733279999999999932e+00 1.648940000000000072e+00 1.790710000000000024e+00 6.389999999999999847e-03
1.258199999999999874e-01 3.457279999999999909e+00 3.445600000000000218e+00 3.625039999999999818e+00 1.724679999999999991e+00 1.724939999999999918e+00 1.874279999999999946e+00 3.488799999999999901e+00 1.718390000000000084e+00 1.809819999999999984e+00 1.764520000000000088e+00 1.600000000000000077e-03
7.006999999999999340e-02 -7.552999999999999992e-02 3.445910000000000029e+00 3.622240000000000126e+00 1.721659999999999968e+00 1.727190000000000003e+00 1.876090000000000035e+00 3.490380000000000038e+00 1.717819999999999903e+00 1.880549999999999944e+00 1.687889999999999890e+00 3.445910000000000029e+00
6.993000000000000604e-02 -7.394000000000000572e-02 3.446210000000000218e+00 3.619450000000000056e+00 1.718650000000000011e+00 1.729440000000000088e+00 1.877890000000000059e+00 3.491960000000000175e+00 1.717249999999999943e+00 1.881680000000000019e+00 1.687729999999999952e+00 3.443929999999999936e+00
1.900000000000000105e-04 4.109999999999999938e-03 2.200000000000000078e-04 3.616670000000000051e+00 1.715649999999999897e+00 1.731680000000000108e+00 1.879690000000000083e+00 3.493539999999999868e+00 1.716679999999999984e+00 1.882810000000000095e+00 1.687570000000000014e+00 3.441949999999999843e+00
3.568880000000000052e+00 5.689999999999999745e-03 5.299999999999999807e-04 3.613900000000000112e+00 1.712660000000000071e+00 1.733929999999999971e+00 1.881490000000000107e+00 3.495109999999999939e+00 1.716110000000000024e+00 1.883930000000000105e+00 1.687419999999999920e+00 3.439970000000000194e+00
8.465000000000000302e-02 7.992000000000000492e-02 3.412720000000000198e+00 2.946999999999999967e-02 1.750220000000000109e+00 1.700849999999999973e+00 1.772829999999999906e+00 4.093000000000000110e-02 1.710350000000000037e+00 1.804119999999999946e+00 1.782100000000000017e+00 3.406759999999999788e+00
1.940000000000000101e-03 8.000000000000000654e-05 2.200000000000000078e-04 3.309000000000000136e-02 1.750029999999999974e+00 1.700599999999999890e+00 1.771589999999999998e+00 4.023000000000000187e-02 1.708869999999999889e+00 1.800389999999999935e+00 1.783150000000000013e+00 3.407799999999999940e+00
-3.214999999999999802e-02 3.416209999999999969e+00 8.999999999999999754e-04 3.669000000000000039e-02 1.749840000000000062e+00 1.700360000000000094e+00 1.734900000000000109e+00 3.455810000000000048e+00 1.707379999999999898e+00 1.796659999999999924e+00 1.784210000000000074e+00 3.408840000000000092e+00
-3.081000000000000058e-02 3.416040000000000187e+00 1.590000000000000050e-03 4.028000000000000330e-02 1.749649999999999928e+00 1.700120000000000076e+00 1.733689999999999953e+00 3.455109999999999904e+00 1.705889999999999906e+00 1.792939999999999978e+00 1.785269999999999913e+00 3.409889999999999866e+00
-2.947999999999999926e-02 3.415869999999999962e+00 2.269999999999999882e-03 4.385000000000000009e-02 1.749460000000000015e+00 1.699880000000000058e+00 1.732490000000000085e+00 3.454410000000000203e+00 1.704399999999999915e+00 1.789239999999999942e+00 1.786319999999999908e+00 3.410930000000000017e+00
-1.943999999999999895e-02 2.729999999999999788e-03 3.568330000000000002e+00 -4.383000000000000090e-02 1.762969999999999926e+00 1.782289999999999930e+00 1.757540000000000102e+00 2.020000000000000094e-03 1.784829999999999917e+00 1.728879999999999972e+00 1.769840000000000080e+00 2.959999999999999958e-03
3.519109999999999960e+00 4.989999999999999644e-03 3.568039999999999878e+00 -4.204000000000000098e-02 1.761619999999999964e+00 1.778890000000000082e+00 1.755519999999999969e+00 1.990000000000000015e-03 1.786470000000000002e+00 1.730110000000000037e+00 1.768969999999999931e+00 5.009999999999999697e-03
3.518110000000000070e+00 7.239999999999999908e-03 3.567750000000000199e+00 -4.025000000000000105e-02 1.760270000000000001e+00 1.775500000000000078e+00 1.753500000000000059e+00 1.959999999999999937e-03 1.788110000000000088e+00 1.731340000000000101e+00 1.768089999999999939e+00 7.049999999999999843e-03
3.517100000000000115e+00 9.490000000000000172e-03 3.567450000000000010e+00 -3.846999999999999725e-02 1.758930000000000105e+00 1.772119999999999918e+00 1.751489999999999991e+00 1.930000000000000075e-03 1.789749999999999952e+00 1.732580000000000009e+00 1.767220000000000013e+00 9.090000000000000857e-03
3.516090000000000160e+00 1.173000000000000084e-02 3.567149999999999821e+00 -3.670000000000000345e-02 1.757589999999999986e+00 1.768739999999999979e+00 1.749489999999999990e+00 1.889999999999999970e-03 1.791390000000000038e+00 1.733819999999999917e+00 1.766359999999999930e+00 1.111999999999999968e-02
0.000000000000000000e+00 0.000000000000000000e+00 0.000000000000000000e+00 0.000000000000000000e+00 1.809439999999999937e+00 1.809439999999999937e+00 1.809439999999999937e+00 0.000000000000000000e+00 1.809439999999999937e+00 1.809439999999999937e+00 1.809439999999999937e+00 0.000000000000000000e+00
4.009999999999999676e-03 5.699999999999999772e-04 3.618710000000000093e+00 3.618549999999999933e+00 1.811520000000000019e+00 1.810170000000000057e+00 1.807250000000000023e+00 3.617550000000000043e+00 1.807760000000000034e+00 1.807940000000000103e+00 1.808119999999999949e+00 1.110000000000000092e-03
8.009999999999999759e-03 1.139999999999999954e-03 3.618549999999999933e+00 3.618219999999999992e+00 1.813600000000000101e+00 1.810899999999999954e+00 1.805060000000000109e+00 3.616210000000000147e+00 1.806079999999999908e+00 1.806459999999999955e+00 1.806799999999999962e+00 2.230000000000000211e-03
1.200999999999999984e-02 1.719999999999999958e-03 3.618390000000000217e+00 3.617890000000000050e+00 1.815679999999999961e+00 1.811630000000000074e+00 1.802880000000000038e+00 3.614879999999999871e+00 1.804400000000000004e+00 1.804969999999999963e+00 1.805469999999999908e+00 3.340000000000000087e-03
1.600000000000000033e-02 2.289999999999999935e-03 3.618219999999999992e+00 3.617550000000000043e+00 1.817760000000000042e+00 1.812359999999999971e+00 1.800699999999999967e+00 3.613560000000000105e+00 1.802720000000000100e+00 1.803490000000000038e+00 1.804149999999999920e+00 4.449999999999999963e-03
3.549319999999999808e+00 3.200000000000000262e-04 2.899999999999999800e-03 -8.689999999999999808e-03 1.763130000000000086e+00 1.800620000000000109e+00 1.795050000000000034e+00 -3.144999999999999879e-02 1.807790000000000008e+00 1.778839999999999977e+00 1.731200000000000072e+00 3.608169999999999877e+00
3.548049999999999926e+00 1.199999999999999895e-03 2.050000000000000173e-03 -8.019999999999999352e-03 1.760199999999999987e+00 1.799490000000000034e+00 1.798040000000000083e+00 -2.929999999999999966e-02 1.808009999999999895e+00 1.743559999999999999e+00 1.806179999999999897e+00 1.149999999999999981e-03
3.546780000000000044e+00 2.069999999999999792e-03 1.190000000000000085e-03 -7.340000000000000170e-03 1.757270000000000110e+00 1.798349999999999893e+00 1.801039999999999974e+00 -2.716999999999999971e-02 1.808230000000000004e+00 1.741160000000000041e+00 1.806100000000000039e+00 2.919999999999999853e-03
3.545510000000000161e+00 2.929999999999999879e-03 3.400000000000000244e-04 -6.669999999999999714e-03 1.754350000000000076e+00 1.797220000000000040e+00 1.804030000000000022e+00 -2.503999999999999976e-02 1.808449999999999891e+00 1.738760000000000083e+00 1.806019999999999959e+00 4.680000000000000132e-03
3.577129999999999921e+00 -7.126000000000000389e-02 3.608270000000000088e+00 -6.000000000000000125e-03 1.751440000000000108e+00 1.796089999999999964e+00 1.807020000000000071e+00 -2.291999999999999940e-02 1.808670000000000000e+00 1.736359999999999904e+00 1.805949999999999944e+00 6.450000000000000004e-03
2.460000000000000034e-02 3.781449999999999978e+00 3.697979999999999823e+00 3.594529999999999781e+00 1.890879999999999894e+00 1.851040000000000019e+00 1.781230000000000091e+00 3.746780000000000221e+00 1.852570000000000050e+00 1.833059999999999912e+00 1.920819999999999972e+00 3.692730000000000068e+00
3.582980000000000054e+00 7.799999999999999859e-04 2.239999999999999804e-03 3.593230000000000146e+00 1.890719999999999956e+00 1.846289999999999987e+00 1.782019999999999937e+00 3.746430000000000149e+00 1.853399999999999936e+00 1.833869999999999889e+00 1.920390000000000041e+00 3.694049999999999834e+00
3.582679999999999865e+00 1.719999999999999958e-03 4.839999999999999684e-03 3.591940000000000133e+00 1.890560000000000018e+00 1.841539999999999955e+00 1.782810000000000006e+00 3.746080000000000076e+00 1.854230000000000045e+00 1.834670000000000023e+00 1.919960000000000111e+00 3.695359999999999978e+00
3.582390000000000185e+00 2.670000000000000064e-03 7.440000000000000432e-03 3.590640000000000054e+00 1.890400000000000080e+00 1.836789999999999923e+00 1.783600000000000074e+00 3.745719999999999938e+00 1.855059999999999931e+00 1.835469999999999935e+00 1.919540000000000024e+00 3.696680000000000188e+00
3.582100000000000062e+00 3.609999999999999928e-03 1.004000000000000031e-02 3.589339999999999975e+00 1.890239999999999920e+00 1.832049999999999956e+00 1.784389999999999921e+00 3.745359999999999800e+00 1.855900000000000105e+00 1.836279999999999912e+00 1.919119999999999937e+00 3.697999999999999954e+00
4.069999999999999833e-03 2.799999999999999755e-04 3.830000000000000071e-03 3.721470000000000056e+00 1.821749999999999980e+00 1.819550000000000001e+00 1.833159999999999901e+00 3.585399999999999920e+00 1.816429999999999989e+00 1.829409999999999981e+00 1.769290000000000029e+00 0.000000000000000000e+00
-5.245999999999999969e-02 3.537840000000000096e+00 4.440000000000000370e-03 1.123000000000000040e-02 1.820370000000000044e+00 1.818389999999999951e+00 1.830209999999999892e+00 3.585980000000000167e+00 1.816650000000000098e+00 1.831760000000000055e+00 1.771090000000000053e+00 3.299999999999999982e-04
3.658370000000000122e+00 3.536840000000000206e+00 5.060000000000000261e-03 1.409999999999999969e-02 1.818990000000000107e+00 1.817220000000000057e+00 1.827269999999999950e+00 3.586559999999999970e+00 1.816880000000000051e+00 1.834109999999999907e+00 1.772890000000000077e+00 6.499999999999999702e-04
3.656089999999999840e+00 3.535829999999999806e+00 5.669999999999999693e-03 1.695999999999999938e-02 1.817609999999999948e+00 1.816060000000000008e+00 1.824330000000000007e+00 3.587140000000000217e+00 1.817120000000000068e+00 1.836470000000000047e+00 1.774690000000000101e+00 9.700000000000000505e-04
3.653810000000000002e+00 3.534829999999999917e+00 6.270000000000000399e-03 1.981000000000000122e-02 1.816240000000000077e+00 1.814899999999999958e+00 1.821409999999999973e+00 3.587720000000000020e+00 1.817360000000000086e+00 1.838819999999999899e+00 1.776489999999999903e+00 1.280000000000000105e-03
3.500000000000000073e-03 5.559999999999999838e-03 3.419999999999999863e-03 -1.717000000000000123e-02 1.810890000000000111e+00 1.827469999999999928e+00 1.812629999999999963e+00 -4.574000000000000288e-02 1.823960000000000026e+00 1.790820000000000078e+00 1.772059999999999969e+00 3.646319999999999784e+00
8.899999999999999491e-04 7.199999999999999803e-03 5.539999999999999786e-03 -1.584999999999999951e-02 1.809530000000000083e+00 1.826389999999999958e+00 1.813299999999999912e+00 -4.374000000000000110e-02 1.821639999999999926e+00 1.794659999999999922e+00 1.861289999999999889e+00 1.100000000000000039e-04
3.626770000000000049e+00 8.850000000000000228e-03 7.660000000000000142e-03 -1.452999999999999951e-02 1.808179999999999898e+00 1.825309999999999988e+00 1.813970000000000082e+00 -4.173000000000000320e-02 1.819309999999999983e+00 1.795279999999999987e+00 1.858999999999999986e+00 1.389999999999999960e-03
3.624159999999999826e+00 1.047999999999999973e-02 9.780000000000000498e-03 -1.322000000000000085e-02 1.806829999999999936e+00 1.824230000000000018e+00 1.814650000000000096e+00 -3.973999999999999755e-02 1.816999999999999948e+00 1.795909999999999895e+00 1.856710000000000083e+00 2.670000000000000064e-03
3.621539999999999981e+00 1.210999999999999924e-02 1.190000000000000085e-02 -1.190000000000000085e-02 1.805490000000000039e+00 1.823150000000000048e+00 1.815320000000000045e+00 -3.774999999999999883e-02 1.814680000000000071e+00 1.796529999999999960e+00 1.854440000000000088e+00 3.939999999999999926e-03
7.352999999999999814e-02 8.040999999999999537e-02 3.697430000000000216e+00 3.756450000000000067e+00 1.902819999999999956e+00 1.850240000000000107e+00 1.909580000000000055e+00 3.765909999999999869e+00 1.854400000000000048e+00 1.933580000000000076e+00 1.936940000000000106e+00 3.697900000000000187e+00
7.256999999999999562e-02 8.279000000000000248e-02 3.697330000000000005e+00 3.755970000000000031e+00 1.901029999999999998e+00 1.851529999999999898e+00 1.911909999999999998e+00 3.763059999999999850e+00 1.855240000000000000e+00 1.932670000000000110e+00 1.939200000000000035e+00 3.695879999999999832e+00
7.162000000000000310e-02 8.516999999999999571e-02 3.697229999999999794e+00 3.755500000000000060e+00 1.899250000000000105e+00 1.852810000000000068e+00 1.914250000000000007e+00 3.760200000000000209e+00 1.856079999999999952e+00 1.931759999999999922e+00 1.941459999999999964e+00 3.693859999999999921e+00
7.066999999999999671e-02 8.755000000000000282e-02 3.697130000000000027e+00 3.755030000000000090e+00 1.897469999999999990e+00 1.854090000000000016e+00 1.916579999999999950e+00 3.757340000000000124e+00 1.856919999999999904e+00 1.930860000000000021e+00 1.943719999999999892e+00 3.691850000000000076e+00
6.970999999999999419e-02 8.992999999999999605e-02 3.697029999999999816e+00 3.754550000000000054e+00 1.895690000000000097e+00 1.855359999999999898e+00 1.918909999999999894e+00 3.754480000000000040e+00 1.857750000000000012e+00 1.929959999999999898e+00 1.945980000000000043e+00 3.689839999999999787e+00
3.664260000000000073e+00 3.530289999999999928e+00 9.300000000000000541e-04 3.697690000000000143e+00 1.781090000000000062e+00 1.759980000000000100e+00 1.866670000000000051e+00 2.220000000000000098e-02 1.756000000000000005e+00 1.833849999999999980e+00 1.765030000000000099e+00 1.850000000000000082e-03
3.731149999999999967e+00 3.565220000000000056e+00 3.520119999999999916e+00 3.724000000000000227e-02 1.783009999999999984e+00 1.761870000000000047e+00 1.868049999999999988e+00 2.394999999999999907e-02 1.754569999999999963e+00 1.832869999999999999e+00 1.764550000000000063e+00 3.109999999999999917e-03
3.729260000000000019e+00 3.562030000000000030e+00 3.518400000000000194e+00 3.873000000000000054e-02 1.784929999999999906e+00 1.763759999999999994e+00 1.869429999999999925e+00 2.569000000000000103e-02 1.753139999999999921e+00 1.831879999999999953e+00 1.764080000000000092e+00 4.369999999999999753e-03
3.727370000000000072e+00 3.558840000000000003e+00 3.516690000000000094e+00 4.023000000000000187e-02 1.786859999999999893e+00 1.765640000000000098e+00 1.870800000000000018e+00 2.742999999999999952e-02 1.751710000000000100e+00 1.830899999999999972e+00 1.763609999999999900e+00 5.629999999999999588e-03
3.725480000000000125e+00 3.555660000000000043e+00 3.514969999999999928e+00 4.173000000000000320e-02 1.788780000000000037e+00 1.767530000000000046e+00 1.872169999999999890e+00 2.917000000000000148e-02 1.750280000000000058e+00 1.829909999999999926e+00 1.763130000000000086e+00 6.879999999999999831e-03
-7.195999999999999619e-02 3.573819999999999997e+00 3.499999999999999964e-04 3.624600000000000044e+00 1.793020000000000058e+00 1.780480000000000063e+00 1.856870000000000021e+00 5.499999999999999681e-03 1.780950000000000033e+00 1.769309999999999938e+00 1.787349999999999994e+00 1.399999999999999877e-04
-7.099999999999999367e-02 3.573570000000000135e+00 1.100000000000000039e-04 1.542999999999999927e-02 1.792640000000000011e+00 1.778319999999999901e+00 1.856119999999999992e+00 7.420000000000000380e-03 1.779179999999999984e+00 1.767870000000000053e+00 1.786059999999999981e+00 4.309999999999999595e-03
3.089000000000000079e-02 3.583330000000000126e+00 3.560439999999999827e+00 1.666000000000000120e-02 1.792259999999999964e+00 1.776170000000000027e+00 1.855369999999999964e+00 9.339999999999999344e-03 1.777400000000000091e+00 1.766429999999999945e+00 1.784759999999999902e+00 8.489999999999999283e-03
3.185000000000000331e-02 3.583079999999999821e+00 3.560189999999999966e+00 1.788999999999999965e-02 1.791889999999999983e+00 1.774010000000000087e+00 1.854630000000000001e+00 1.125999999999999918e-02 1.775630000000000042e+00 1.764979999999999993e+00 1.783470000000000111e+00 1.265999999999999938e-02
3.280999999999999889e-02 3.582819999999999894e+00 3.559930000000000039e+00 1.910999999999999852e-02 1.791509999999999936e+00 1.771870000000000056e+00 1.853890000000000038e+00 1.318000000000000074e-02 1.773870000000000058e+00 1.763549999999999951e+00 1.782189999999999941e+00 1.682000000000000162e-02
3.761210000000000164e+00 -3.141999999999999654e-02 3.598949999999999871e+00 3.733670000000000044e+00 1.775649999999999951e+00 1.806089999999999973e+00 1.921229999999999993e+00 3.551229999999999887e+00 1.800990000000000091e+00 1.954080000000000039e+00 1.746410000000000018e+00 3.596760000000000179e+00
3.759759999999999991e+00 -2.878999999999999962e-02 3.599670000000000147e+00 7.025000000000000688e-02 1.776119999999999921e+00 1.805800000000000072e+00 1.923219999999999930e+00 3.549269999999999925e+00 1.798789999999999889e+00 1.951710000000000056e+00 1.745270000000000099e+00 3.598539999999999850e+00
3.758319999999999883e+00 -2.615999999999999923e-02 3.600389999999999979e+00 7.208000000000000518e-02 1.776589999999999892e+00 1.805490000000000039e+00 1.925210000000000088e+00 3.547309999999999963e+00 1.796580000000000066e+00 1.949330000000000007e+00 1.744129999999999958e+00 3.600330000000000030e+00
3.756870000000000154e+00 -2.352999999999999883e-02 3.601109999999999811e+00 7.391000000000000347e-02 1.777050000000000018e+00 1.805190000000000072e+00 1.927200000000000024e+00 3.545350000000000001e+00 1.794370000000000021e+00 1.850209999999999910e+00 1.780280000000000085e+00 5.999999999999999474e-04
3.658689999999999998e+00 1.637999999999999873e-02 3.299999999999999982e-04 7.573000000000000564e-02 1.777519999999999989e+00 1.804890000000000105e+00 1.929189999999999960e+00 3.543390000000000040e+00 1.792170000000000041e+00 1.847830000000000084e+00 1.779150000000000009e+00 2.390000000000000197e-03
3.751920000000000144e+00 -3.760000000000000148e-02 3.645709999999999784e+00 3.712750000000000217e+00 1.744259999999999922e+00 1.818270000000000053e+00 1.880670000000000064e+00 -1.617000000000000035e-02 1.823350000000000026e+00 1.906020000000000048e+00 1.733700000000000019e+00 3.642170000000000130e+00
3.738929999999999865e+00 3.493570000000000064e+00 3.644480000000000164e+00 3.712479999999999780e+00 1.745149999999999979e+00 1.819709999999999939e+00 1.879699999999999926e+00 -1.502000000000000036e-02 1.823460000000000081e+00 1.904679999999999929e+00 1.735740000000000061e+00 3.641849999999999810e+00
5.543000000000000010e-02 3.489500000000000046e+00 3.643250000000000099e+00 3.712209999999999788e+00 1.746029999999999971e+00 1.821159999999999890e+00 1.878730000000000011e+00 -1.387999999999999998e-02 1.823569999999999913e+00 1.903340000000000032e+00 1.737780000000000102e+00 3.641519999999999868e+00
5.800999999999999907e-02 3.485440000000000094e+00 3.642020000000000035e+00 3.711939999999999795e+00 1.746909999999999963e+00 1.822599999999999998e+00 1.877760000000000096e+00 -1.273999999999999959e-02 1.823679999999999968e+00 1.901999999999999913e+00 1.739819999999999922e+00 3.641199999999999992e+00