-3.616649077000000290e+01
-3.616614651999999808e+01
-3.616511785000000145e+01
-3.616341073000000250e+01
-3.616103526999999929e+01
-3.632195373999999788e+01
-3.632172922000000170e+01
-3.632120863000000099e+01
-3.632039256000000194e+01
-3.631928325999999885e+01
-3.603890995999999802e+01
-3.603804439000000315e+01
-3.603658555999999891e+01
-3.603454124999999664e+01
-3.603192280999999753e+01
-3.608466937000000030e+01
-3.608406029999999731e+01
-3.608290067000000079e+01
-3.608119711999999879e+01
-3.607895951999999795e+01
-3.595604276000000254e+01
-3.595540613000000008e+01
-3.595425338999999809e+01
-3.595259062000000227e+01
-3.595042550000000148e+01
-3.609322285999999735e+01
-3.609300495000000097e+01
-3.609241415000000330e+01
-3.609145024000000035e+01
-3.609011592000000235e+01
-3.609052927999999838e+01
-3.608996326999999837e+01
-3.608886571000000032e+01
-3.608724069000000156e+01
-3.608509552999999670e+01
-3.623980105999999779e+01
-3.623920801999999952e+01
-3.623777024999999696e+01
-3.623549648000000190e+01
-3.623240046000000092e+01
-3.550422391000000033e+01
-3.550310026999999735e+01
-3.550068635000000228e+01
-3.549700423000000171e+01
-3.549208651000000003e+01
-3.635063955999999763e+01
-3.635009709999999927e+01
-3.634909214000000333e+01
-3.634762920000000008e+01
-3.634571543999999932e+01
-3.648148132000000032e+01
-3.648126520999999656e+01
-3.648061878000000036e+01
-3.647954324999999898e+01
-3.647804212999999862e+01
-3.647489019999999726e+01
-3.647432223999999934e+01
-3.647338793000000123e+01
-3.647209002999999683e+01
-3.647043313000000353e+01
-3.647812300999999735e+01
-3.647837008999999853e+01
-3.647812296000000032e+01
-3.647738231999999670e+01
-3.647615134000000126e+01
-3.654920096000000029e+01
-3.654894562999999863e+01
-3.654846301999999980e+01
-3.654776546000000081e+01
-3.654685166000000152e+01
-3.645467181000000068e+01
-3.645414513000000056e+01
-3.645300727000000052e+01
-3.645126747999999850e+01
-3.644893250999999879e+01
-3.628773915000000017e+01
-3.628752594000000187e+01
-3.628715767999999997e+01
-3.628663770000000000e+01
-3.628597032999999783e+01
-3.646869464000000249e+01
-3.646864035000000115e+01
-3.646832106000000095e+01
-3.646773620999999821e+01
-3.646688749999999857e+01
-3.646490170999999947e+01
-3.646465690000000137e+01
-3.646379180999999647e+01
-3.646231018999999662e+01
-3.646022030000000314e+01
-3.650600098999999688e+01
-3.650613521999999733e+01
-3.650601573000000144e+01
-3.650564185999999722e+01
-3.650501391000000240e+01
-3.652913685000000044e+01
-3.652929007000000183e+01
-3.652903183000000098e+01
-3.652836243000000138e+01
-3.652728498999999829e+01
-3.622459729999999922e+01
-3.622449467999999939e+01
-3.622417456000000158e+01
-3.622364085000000244e+01
-3.622289685999999875e+01
-3.637170342999999662e+01
-3.637141866000000334e+01
-3.637091413999999645e+01
-3.637018963999999954e+01
-3.636924969999999746e+01
-3.602527804999999717e+01
-3.602501448999999667e+01
-3.602441652000000261e+01
-3.602354420000000346e+01
-3.636439425999999742e+01
-3.636466511999999796e+01
-3.636472506999999865e+01
-3.636457767000000274e+01
-3.636422706999999832e+01
-3.644365834999999976e+01
-3.644378332000000142e+01
-3.644376658000000191e+01
-3.644365144999999728e+01
-3.644343486000000354e+01
-3.611706060000000207e+01
-3.611675596999999982e+01
-3.611627751000000330e+01
-3.611563103000000297e+01
-3.611482677000000052e+01
-3.632252693000000221e+01
-3.632225223999999741e+01
-3.632156924000000231e+01
-3.632048521000000108e+01
-3.631900260999999830e+01
-3.644814393000000052e+01
-3.644807375999999977e+01
-3.644780816000000101e+01
-3.644734652000000352e+01
-3.644669066000000157e+01
-3.622610527999999874e+01
-3.622591792000000055e+01
-3.622541647999999981e+01
-3.622467930999999908e+01
-3.622369848000000303e+01
-3.640186213999999865e+01
-3.640154026999999815e+01
-3.640109628999999813e+01
-3.640053025999999647e+01
