-1.099999999999999971e-05 -9.000000000000000228e-06 1.999999999999999909e-06 7.999999999999999638e-06 5.000000000000000409e-06 -9.999999999999999547e-07 3.999999999999999819e-06 9.000000000000000228e-06 3.100000000000000135e-05 -6.000000000000000152e-06 -9.000000000000000228e-06 -3.100000000000000135e-05
1.385699999999999953e-02 -2.220600000000000004e-02 -6.018099999999999838e-02 -2.967300000000000146e-02 2.432000000000000134e-02 7.465600000000000014e-02 1.679100000000000037e-02 -2.533099999999999935e-02 5.331400000000000028e-02 -8.450000000000000479e-04 2.302500000000000033e-02 -6.789599999999999802e-02
2.369800000000000031e-02 -4.318500000000000116e-02 -1.173440000000000039e-01 -5.453299999999999814e-02 4.700499999999999817e-02 1.433909999999999907e-01 3.076100000000000015e-02 -4.818000000000000060e-02 1.044550000000000062e-01 1.559999999999999972e-04 4.435599999999999959e-02 -1.304939999999999989e-01
3.477399999999999936e-02 -6.450899999999999690e-02 -1.753450000000000009e-01 -8.097600000000000631e-02 7.016999999999999627e-02 2.139659999999999895e-01 4.560100000000000264e-02 -7.179900000000000171e-02 1.562649999999999872e-01 5.509999999999999490e-04 6.621199999999999308e-02 -1.947309999999999874e-01
4.649400000000000061e-02 -8.589499999999999913e-02 -2.333659999999999901e-01 -1.079500000000000043e-01 9.343700000000000616e-02 2.849030000000000173e-01 6.094399999999999817e-02 -9.579999999999999627e-02 2.082009999999999972e-01 4.079999999999999968e-04 8.830300000000000649e-02 -2.595899999999999874e-01
3.281400000000000289e-02 6.422500000000000431e-02 -7.371600000000000374e-02 2.928199999999999900e-02 -5.507599999999999996e-02 4.423699999999999855e-02 -1.929600000000000065e-02 5.103099999999999997e-02 5.869300000000000211e-02 -4.304000000000000187e-02 -6.035100000000000187e-02 -2.955199999999999841e-02
2.274999999999999939e-02 4.388100000000000334e-02 -1.043940000000000007e-01 -7.653000000000000080e-03 -4.452699999999999714e-02 4.634499999999999731e-02 1.998499999999999929e-02 4.424999999999999767e-02 8.866899999999999782e-02 -3.623799999999999938e-02 -4.365399999999999836e-02 -3.056599999999999942e-02
1.022200000000000018e-02 2.981299999999999922e-02 -1.259679999999999966e-01 -3.555200000000000027e-02 -3.478500000000000342e-02 5.400699999999999945e-02 4.895700000000000052e-02 3.540999999999999703e-02 1.088189999999999991e-01 -2.384299999999999961e-02 -3.063799999999999857e-02 -3.696499999999999786e-02
-1.508000000000000009e-03 1.327799999999999987e-02 -1.509109999999999896e-01 -6.708100000000000174e-02 -2.455900000000000097e-02 5.933100000000000179e-02 8.202299999999999869e-02 2.722899999999999973e-02 1.327750000000000041e-01 -1.333600000000000063e-02 -1.618400000000000047e-02 -4.129900000000000237e-02
-1.245500000000000079e-02 -3.996000000000000420e-03 -1.768440000000000012e-01 -9.934600000000000375e-02 -1.440699999999999967e-02 6.393200000000000272e-02 1.160059999999999980e-01 1.948300000000000032e-02 1.573970000000000091e-01 -4.178000000000000290e-03 -1.219999999999999947e-03 -4.441699999999999815e-02
-3.560699999999999976e-02 1.381239999999999968e-01 3.088400000000000173e-02 -4.180799999999999794e-02 -1.236470000000000069e-01 -3.124899999999999900e-02 3.590000000000000135e-02 1.133679999999999966e-01 -4.581699999999999662e-02 4.150600000000000123e-02 -1.279049999999999909e-01 4.629199999999999982e-02
-2.667299999999999879e-02 1.654289999999999927e-01 9.072099999999999609e-02 -6.199999999999999999e-04 -1.607550000000000090e-01 -8.409099999999999908e-02 8.895000000000000129e-03 1.549329999999999874e-01 -8.869900000000000007e-02 1.767600000000000074e-02 -1.597689999999999944e-01 8.190799999999999470e-02
-1.512200000000000003e-02 1.918229999999999935e-01 1.436340000000000117e-01 3.553300000000000208e-02 -1.945330000000000115e-01 -1.323270000000000002e-01 -1.634299999999999989e-02 1.917089999999999905e-01 -1.292000000000000093e-01 -4.135999999999999920e-03 -1.891259999999999886e-01 1.179999999999999938e-01
-4.818000000000000234e-03 2.182749999999999968e-01 1.993020000000000069e-01 7.381400000000000461e-02 -2.294110000000000038e-01 -1.823349999999999971e-01 -4.230799999999999839e-02 2.302780000000000105e-01 -1.705840000000000134e-01 -2.676200000000000107e-02 -2.192890000000000117e-01 1.536939999999999973e-01
5.738000000000000045e-03 2.443539999999999879e-01 2.548380000000000090e-01 1.121599999999999958e-01 -2.640410000000000257e-01 -2.321229999999999960e-01 -6.837200000000000222e-02 2.687510000000000177e-01 -2.120360000000000023e-01 -4.943399999999999878e-02 -2.491849999999999898e-01 1.893660000000000065e-01
5.338999999999999996e-03 -4.883500000000000341e-02 4.372199999999999698e-02 4.479999999999999954e-02 5.481400000000000161e-02 -3.538100000000000273e-02 1.386000000000000079e-02 -4.556799999999999740e-02 -7.232999999999999846e-03 -6.398800000000000321e-02 3.957700000000000107e-02 -1.154000000000000078e-03
-4.903000000000000240e-03 -7.589200000000000113e-02 1.177539999999999976e-01 7.064399999999999846e-02 7.214399999999999979e-02 -9.507400000000000573e-02 -9.244000000000000480e-03 -4.466500000000000331e-02 -5.784399999999999958e-02 -5.569099999999999745e-02 4.877900000000000291e-02 3.435799999999999965e-02
-1.142100000000000060e-02 -9.589999999999999913e-02 1.818730000000000069e-01 9.020000000000000240e-02 8.634600000000000608e-02 -1.490789999999999893e-01 -2.687399999999999858e-02 -4.893100000000000227e-02 -1.036630000000000051e-01 -5.188399999999999956e-02 5.840700000000000058e-02 7.083299999999999319e-02
-1.962200000000000055e-02 -1.191019999999999995e-01 2.501619999999999955e-01 1.126290000000000069e-01 1.020049999999999985e-01 -2.053059999999999885e-01 -4.696999999999999786e-02 -5.074499999999999844e-02 -1.513369999999999993e-01 -4.601299999999999835e-02 6.773700000000000554e-02 1.063950000000000035e-01
-2.787999999999999853e-02 -1.422299999999999953e-01 3.184460000000000068e-01 1.351410000000000111e-01 1.175490000000000007e-01 -2.613019999999999787e-01 -6.738399999999999945e-02 -5.221499999999999753e-02 -1.989900000000000002e-01 -3.983300000000000035e-02 7.681300000000000627e-02 1.418099999999999916e-01
6.717399999999999760e-02 -9.918699999999999739e-02 -4.087999999999999620e-03 8.111000000000000154e-03 8.361799999999999788e-02 -1.065699999999999981e-02 -1.405200000000000025e-02 -8.461899999999999977e-02 1.957800000000000165e-02 -6.121100000000000152e-02 1.002439999999999998e-01 -4.697999999999999919e-03
5.074300000000000338e-02 -1.384350000000000025e-01 -4.943299999999999778e-02 -1.805700000000000013e-02 1.276239999999999875e-01 -9.298000000000000709e-03 -5.220999999999999946e-03 -1.280729999999999924e-01 3.745899999999999924e-02 -2.789000000000000160e-02 1.389880000000000004e-01 2.166699999999999876e-02
3.365300000000000236e-02 -1.751530000000000031e-01 -8.976099999999999357e-02 -4.118999999999999745e-02 1.683089999999999864e-01 -7.224999999999999652e-03 5.405000000000000082e-03 -1.678590000000000082e-01 5.299899999999999750e-02 2.132000000000000214e-03 1.747509999999999897e-01 4.411500000000000143e-02
1.680600000000000149e-02 -2.123899999999999955e-01 -1.317079999999999917e-01 -6.538700000000000068e-02 2.098820000000000130e-01 -5.422999999999999869e-03 1.541400000000000062e-02 -2.086179999999999979e-01 6.928800000000000237e-02 3.324699999999999878e-02 2.111149999999999971e-01 6.780600000000000516e-02
1.440000000000000036e-04 -2.494959999999999956e-01 -1.740180000000000060e-01 -8.978999999999999482e-02 2.515069999999999806e-01 -3.746000000000000198e-03 2.509600000000000025e-02 -2.495469999999999910e-01 8.588700000000000501e-02 6.462099999999999789e-02 2.475400000000000100e-01 9.178999999999999659e-02
-1.883999999999999911e-02 2.343999999999999903e-02 -1.108000000000000044e-03 -7.531899999999999706e-02 -5.980000000000000072e-03 2.061500000000000138e-02 5.205400000000000305e-02 5.885999999999999739e-03 7.288000000000000207e-03 4.216099999999999709e-02 -2.328300000000000161e-02 -2.683899999999999827e-02
8.978999999999999135e-03 3.652999999999999997e-03 1.152700000000000079e-02 -8.598699999999999399e-02 -1.502500000000000016e-02 -6.380000000000000254e-03 5.406699999999999701e-02 2.110499999999999876e-02 5.081900000000000306e-02 2.273199999999999874e-02 -9.272999999999999993e-03 -5.641100000000000281e-02
2.958399999999999919e-02 -7.543000000000000226e-03 2.047500000000000014e-02 -9.083900000000000308e-02 -1.911200000000000052e-02 -2.680000000000000090e-02 5.593000000000000055e-02 2.878100000000000103e-02 8.473500000000000476e-02 5.424000000000000002e-03 -2.063999999999999863e-03 -7.847400000000000209e-02
5.328499999999999903e-02 -2.256400000000000072e-02 3.099599999999999925e-02 -9.822300000000000475e-02 -2.535199999999999954e-02 -4.997200000000000253e-02 5.769500000000000323e-02 3.980999999999999817e-02 1.227889999999999954e-01 -1.266199999999999964e-02 8.179999999999999771e-03 -1.038970000000000032e-01
7.746699999999999420e-02 -3.820500000000000285e-02 4.180199999999999888e-02 -1.057779999999999970e-01 -3.196000000000000230e-02 -7.354700000000000126e-02 5.933499999999999885e-02 5.127600000000000213e-02 1.612619999999999887e-01 -3.088799999999999879e-02 1.895900000000000016e-02 -1.295779999999999987e-01
-6.409299999999999720e-02 -4.495699999999999696e-02 -6.555400000000000116e-02 2.458799999999999875e-02 2.311699999999999866e-02 7.093000000000000693e-02 1.032500000000000084e-02 -3.160000000000000048e-03 2.988299999999999984e-02 2.916300000000000142e-02 2.499900000000000039e-02 -3.519200000000000106e-02
-9.412700000000000233e-02 -1.095590000000000036e-01 -6.624299999999999633e-02 -2.517600000000000046e-02 5.457499999999999851e-02 8.401699999999999446e-02 3.732100000000000001e-02 -2.001800000000000107e-02 3.111600000000000130e-02 8.069800000000000584e-02 7.504800000000000360e-02 -4.876099999999999879e-02
-1.229640000000000039e-01 -1.638749999999999929e-01 -7.067500000000000171e-02 -6.568699999999999539e-02 8.615299999999999347e-02 9.283700000000000285e-02 6.661400000000000654e-02 -4.021000000000000268e-02 3.544400000000000328e-02 1.219400000000000067e-01 1.179530000000000023e-01 -5.756900000000000212e-02
-1.523380000000000012e-01 -2.228549999999999975e-01 -7.342799999999999327e-02 -1.103589999999999988e-01 1.173710000000000031e-01 1.037730000000000041e-01 9.458999999999999353e-02 -5.847000000000000114e-02 3.826299999999999840e-02 1.679059999999999997e-01 1.639490000000000114e-01 -6.855700000000000682e-02
-1.814379999999999882e-01 -2.820139999999999869e-01 -7.583900000000000363e-02 -1.554599999999999871e-01 1.485940000000000039e-01 1.146029999999999965e-01 1.223999999999999949e-01 -7.660999999999999754e-02 4.079300000000000287e-02 2.143319999999999947e-01 2.100430000000000075e-01 -7.949299999999999422e-02
-1.014299999999999924e-02 -2.156399999999999983e-02 -1.939600000000000005e-02 5.681200000000000139e-02 4.100999999999999611e-03 1.329699999999999979e-02 -2.471500000000000086e-02 2.641699999999999951e-02 3.596699999999999897e-02 -2.197100000000000095e-02 -9.150999999999999412e-03 -2.979599999999999957e-02
3.022999999999999993e-02 -8.026300000000000101e-02 8.090000000000000403e-04 1.252479999999999982e-01 7.971100000000000407e-02 -2.223599999999999882e-02 -8.596800000000000275e-02 -3.061399999999999885e-02 2.035999999999999963e-02 -6.974800000000000444e-02 2.986700000000000119e-02 1.724999999999999971e-03
6.851899999999999658e-02 -1.308840000000000003e-01 2.267299999999999871e-02 1.862179999999999946e-01 1.467640000000000056e-01 -5.126499999999999807e-02 -1.407509999999999872e-01 -8.290300000000000447e-02 3.115000000000000147e-03 -1.140199999999999964e-01 6.660800000000000054e-02 2.555199999999999833e-02
1.073439999999999950e-01 -1.841480000000000061e-01 4.370600000000000179e-02 2.494389999999999941e-01 2.164030000000000120e-01 -8.246399999999999564e-02 -1.975530000000000064e-01 -1.365439999999999987e-01 -1.338600000000000033e-02 -1.592379999999999907e-01 1.040240000000000054e-01 5.209799999999999848e-02
1.462309999999999999e-01 -2.380839999999999901e-01 6.437800000000000467e-02 3.129069999999999907e-01 2.864419999999999744e-01 -1.138919999999999932e-01 -2.546999999999999820e-01 -1.904279999999999862e-01 -2.991900000000000115e-02 -2.044850000000000001e-01 1.416100000000000136e-01 7.948500000000000010e-02
-6.732799999999999896e-02 -4.719500000000000084e-02 2.210399999999999865e-02 -1.097319999999999962e-01 1.895399999999999863e-02 -1.717899999999999983e-02 1.200809999999999933e-01 -6.689299999999999413e-02 -8.500399999999999623e-02 5.685799999999999882e-02 9.511000000000000010e-02 8.022799999999999376e-02
-1.675339999999999885e-01 -3.322300000000000253e-02 -1.177199999999999948e-02 -2.349700000000000122e-01 1.142800000000000066e-02 5.948000000000000162e-03 2.190259999999999985e-01 -4.388800000000000340e-02 -4.089500000000000079e-02 1.827910000000000090e-01 6.571499999999999564e-02 4.694000000000000256e-02
-2.623559999999999781e-01 -1.999700000000000089e-02 -4.232799999999999757e-02 -3.488620000000000054e-01 3.726000000000000145e-03 2.819599999999999884e-02 3.132420000000000204e-01 -2.379699999999999871e-02 -3.302999999999999946e-03 2.979100000000000081e-01 4.008500000000000257e-02 1.756699999999999928e-02
-3.583720000000000239e-01 -6.420000000000000359e-03 -7.426800000000000068e-02 -4.662649999999999850e-01 -3.893999999999999892e-03 5.084500000000000131e-02 4.082890000000000130e-01 -2.443999999999999992e-03 3.705399999999999666e-02 4.163419999999999899e-01 1.275899999999999951e-02 -1.351899999999999977e-02
-4.534560000000000257e-01 7.287000000000000074e-03 -1.063400000000000040e-01 -5.829269999999999730e-01 -1.162000000000000012e-02 7.351599999999999802e-02 5.023640000000000327e-01 1.911799999999999958e-02 7.771200000000000330e-02 5.340789999999999704e-01 -1.472900000000000077e-02 -4.483700000000000185e-02
-6.561200000000000365e-02 1.004999999999999991e-02 -1.806100000000000066e-02 -8.944499999999999673e-02 2.077499999999999833e-02 4.295899999999999719e-02 7.040699999999999736e-02 4.124000000000000062e-03 2.171500000000000166e-02 8.475299999999999501e-02 -3.490000000000000047e-02 -4.661099999999999965e-02
-6.378899999999999848e-02 -3.425199999999999773e-02 -3.602400000000000047e-02 -1.151309999999999972e-01 5.946200000000000097e-02 9.272299999999999986e-02 9.608099999999999974e-02 -2.479999999999999913e-02 2.755799999999999916e-02 8.295600000000000196e-02 -6.449999999999999570e-04 -8.475199999999999401e-02
-6.333500000000000241e-02 -7.159799999999999498e-02 -5.467600000000000238e-02 -1.366839999999999999e-01 9.445599999999999830e-02 1.349049999999999971e-01 1.157149999999999984e-01 -5.379099999999999854e-02 3.633100000000000218e-02 8.453499999999999903e-02 3.090800000000000144e-02 -1.167590000000000017e-01
-6.251700000000000312e-02 -1.110050000000000064e-01 -7.317400000000000293e-02 -1.592590000000000117e-01 1.304329999999999934e-01 1.792580000000000007e-01 1.369579999999999964e-01 -8.276100000000000123e-02 4.443899999999999934e-02 8.514299999999999646e-02 6.329799999999999316e-02 -1.506480000000000041e-01
-6.139399999999999719e-02 -1.513120000000000021e-01 -9.126099999999999490e-02 -1.820749999999999869e-01 1.665639999999999898e-01 2.243930000000000091e-01 1.590509999999999979e-01 -1.111440000000000067e-01 5.199399999999999855e-02 8.483499999999999375e-02 9.576999999999999402e-02 -1.853440000000000087e-01
1.999999999999999909e-06 1.999999999999999909e-06 9.000000000000000228e-06 -1.999999999999999909e-06 -9.999999999999999547e-07 -9.000000000000000228e-06 1.999999999999999909e-06 -3.999999999999999819e-06 5.000000000000000409e-06 -9.999999999999999547e-07 6.999999999999999895e-06 -6.000000000000000152e-06
-5.449600000000000277e-02 4.660000000000000080e-03 -8.077000000000000846e-03 -3.306800000000000017e-02 -1.814500000000000141e-02 5.396999999999999888e-03 4.563199999999999895e-02 1.371600000000000076e-02 1.763800000000000090e-02 4.213800000000000184e-02 -5.000000000000000104e-04 -1.516699999999999993e-02
-1.029090000000000005e-01 9.589999999999999566e-03 -1.654800000000000021e-02 -6.656199999999999617e-02 -3.185899999999999843e-02 1.183999999999999983e-02 8.764500000000000068e-02 2.542799999999999921e-02 3.205000000000000210e-02 8.174900000000000222e-02 -3.242000000000000090e-03 -2.738700000000000162e-02
-1.528039999999999954e-01 1.459799999999999986e-02 -2.497699999999999920e-02 -1.002299999999999996e-01 -4.651299999999999879e-02 1.813000000000000028e-02 1.306940000000000046e-01 3.762700000000000072e-02 4.727599999999999858e-02 1.222049999999999942e-01 -5.585999999999999820e-03 -4.028700000000000336e-02
-2.037629999999999997e-01 1.945300000000000154e-02 -3.315799999999999997e-02 -1.331120000000000081e-01 -6.237199999999999689e-02 2.395999999999999866e-02 1.740970000000000018e-01 5.009999999999999870e-02 6.326900000000000579e-02 1.627409999999999968e-01 -7.088999999999999815e-03 -5.396100000000000202e-02
1.186599999999999981e-02 -2.538699999999999984e-02 -2.890600000000000114e-02 -1.264200000000000046e-02 5.407399999999999707e-02 3.153600000000000153e-02 -8.925000000000000641e-03 -5.157899999999999985e-02 2.910000000000000260e-04 9.641999999999999529e-03 2.277600000000000111e-02 -3.065000000000000016e-03
2.605299999999999977e-02 -6.510499999999999621e-02 -3.069399999999999906e-02 -1.310599999999999959e-02 1.027119999999999977e-01 4.428399999999999698e-02 -2.672799999999999829e-02 -9.257600000000000551e-02 8.781000000000000610e-03 1.398800000000000043e-02 5.469000000000000250e-02 -2.234500000000000028e-02
3.802500000000000324e-02 -1.025309999999999971e-01 -3.471099999999999880e-02 -1.275399999999999971e-02 1.472789999999999933e-01 5.512199999999999739e-02 -4.104300000000000309e-02 -1.308719999999999883e-01 1.784399999999999875e-02 1.590899999999999953e-02 8.608000000000000373e-02 -3.841599999999999876e-02
5.077700000000000269e-02 -1.410559999999999869e-01 -3.805200000000000249e-02 -1.263500000000000040e-02 1.934919999999999973e-01 6.663700000000000179e-02 -5.659299999999999747e-02 -1.700500000000000067e-01 2.670700000000000157e-02 1.865699999999999997e-02 1.176220000000000043e-01 -5.549599999999999672e-02
6.336799999999999378e-02 -1.794250000000000012e-01 -4.126400000000000207e-02 -1.251000000000000029e-02 2.393240000000000089e-01 7.797400000000000164e-02 -7.178500000000000159e-02 -2.088899999999999924e-01 3.555099999999999927e-02 2.109199999999999964e-02 1.491310000000000136e-01 -7.248899999999999788e-02
-1.640099999999999891e-02 -1.754700000000000010e-02 4.679200000000000026e-02 -2.241800000000000043e-02 7.773999999999999660e-03 -5.988500000000000073e-02 1.697500000000000051e-02 -2.476599999999999982e-02 -6.376199999999999923e-02 2.160400000000000167e-02 3.456999999999999656e-02 7.692000000000000226e-02
-5.453999999999999647e-03 -3.173499999999999932e-02 -4.466000000000000351e-03 -1.642999999999999929e-03 1.810000000000000150e-02 3.059000000000000087e-03 2.716000000000000098e-03 -2.739799999999999874e-02 -3.387600000000000333e-02 3.824999999999999841e-03 4.136499999999999899e-02 3.506399999999999795e-02
3.452999999999999906e-03 -4.315200000000000286e-02 -4.966199999999999781e-02 1.607700000000000101e-02 2.813299999999999829e-02 5.584700000000000081e-02 -8.366999999999999438e-03 -3.118399999999999991e-02 -2.513000000000000043e-03 -1.137400000000000043e-02 4.626000000000000251e-02 -3.550000000000000204e-03
1.320600000000000072e-02 -5.590300000000000130e-02 -9.765999999999999681e-02 3.519800000000000012e-02 3.820400000000000185e-02 1.133709999999999996e-01 -2.089299999999999838e-02 -3.439199999999999896e-02 2.774700000000000083e-02 -2.770500000000000046e-02 5.214599999999999791e-02 -4.352299999999999919e-02
2.310200000000000101e-02 -6.854499999999999482e-02 -1.458520000000000094e-01 5.425399999999999667e-02 4.828799999999999759e-02 1.709050000000000014e-01 -3.340900000000000120e-02 -3.764800000000000091e-02 5.860499999999999737e-02 -4.406500000000000000e-02 5.789600000000000302e-02 -8.373600000000000487e-02
-8.224099999999999466e-02 1.264999999999999979e-02 -5.776099999999999984e-02 -3.976600000000000273e-02 -2.039699999999999847e-02 3.167699999999999683e-02 7.975599999999999357e-02 3.411200000000000343e-02 6.388299999999999534e-02 4.235599999999999782e-02 -2.655400000000000121e-02 -3.783700000000000258e-02
-7.809099999999999375e-02 1.170200000000000060e-02 -6.506900000000000184e-02 -6.216399999999999704e-02 -1.531199999999999922e-02 4.436899999999999872e-02 1.031170000000000003e-01 3.224799999999999889e-02 7.484300000000000674e-02 3.724999999999999839e-02 -2.882900000000000046e-02 -5.402499999999999664e-02
-6.886100000000000554e-02 1.304199999999999977e-02 -7.331899999999999529e-02 -8.973299999999999332e-02 -6.858000000000000380e-03 5.874999999999999667e-02 1.320929999999999882e-01 2.881799999999999987e-02 8.489599999999999924e-02 2.649100000000000066e-02 -3.524900000000000255e-02 -7.037999999999999812e-02
-6.248000000000000081e-02 1.332799999999999957e-02 -8.116700000000000303e-02 -1.140199999999999964e-01 3.699999999999999811e-05 7.225700000000000178e-02 1.575320000000000054e-01 2.602700000000000152e-02 9.551300000000000068e-02 1.894500000000000003e-02 -3.962500000000000050e-02 -8.667999999999999317e-02
-5.590400000000000230e-02 1.314599999999999970e-02 -8.850600000000000134e-02 -1.381860000000000033e-01 6.530000000000000214e-03 8.530200000000000282e-02 1.827600000000000058e-01 2.343100000000000044e-02 1.056880000000000042e-01 1.124499999999999979e-02 -4.333300000000000346e-02 -1.025189999999999990e-01
-3.315599999999999797e-02 -6.575499999999999401e-02 1.077900000000000039e-02 -4.064299999999999857e-02 7.806000000000000438e-02 -2.142799999999999913e-02 3.577799999999999730e-02 -4.595599999999999685e-02 -5.876000000000000147e-03 3.809400000000000286e-02 3.384899999999999715e-02 1.651499999999999843e-02
-1.149099999999999948e-02 -1.077619999999999967e-01 -2.314599999999999991e-02 -3.723599999999999827e-02 1.192769999999999941e-01 8.949000000000000357e-03 2.476499999999999882e-02 -9.590400000000000313e-02 3.441000000000000308e-02 2.352999999999999883e-02 8.526599999999999457e-02 -1.958299999999999971e-02
5.137000000000000073e-03 -1.464280000000000026e-01 -5.265399999999999942e-02 -3.054199999999999970e-02 1.573080000000000034e-01 3.661600000000000271e-02 1.506399999999999927e-02 -1.418820000000000081e-01 6.945800000000000585e-02 1.028500000000000074e-02 1.313360000000000083e-01 -5.329899999999999916e-02
2.210300000000000112e-02 -1.850829999999999975e-01 -8.235199999999999465e-02 -2.423799999999999913e-02 1.951600000000000001e-01 6.425200000000000355e-02 5.288000000000000166e-03 -1.876019999999999910e-01 1.046860000000000013e-01 -2.915000000000000056e-03 1.774370000000000114e-01 -8.685700000000000365e-02
4.151200000000000029e-02 -2.249240000000000128e-01 -1.142159999999999981e-01 -1.941599999999999923e-02 2.344169999999999865e-01 9.334499999999999742e-02 -5.158000000000000258e-03 -2.353119999999999934e-01 1.425069999999999948e-01 -1.687999999999999917e-02 2.260040000000000104e-01 -1.218209999999999987e-01
-1.434400000000000085e-02 -2.547299999999999912e-02 4.631400000000000100e-02 -4.124000000000000062e-03 1.842699999999999894e-02 -4.743399999999999700e-02 -8.649999999999999920e-04 -3.524200000000000249e-02 -5.946200000000000097e-02 1.915000000000000036e-02 4.245100000000000262e-02 6.094600000000000017e-02
-1.564999999999999985e-03 -2.935799999999999868e-02 5.900799999999999795e-02 7.603000000000000383e-03 1.878000000000000155e-02 -6.300999999999999657e-02 -1.943599999999999842e-02 -2.424799999999999872e-02 -7.503799999999999359e-02 1.347199999999999960e-02 3.491600000000000259e-02 7.940700000000000536e-02
9.631999999999999937e-03 -2.947699999999999973e-02 7.179699999999999971e-02 1.772400000000000017e-02 1.627199999999999827e-02 -7.585600000000000676e-02 -3.399400000000000338e-02 -1.715200000000000058e-02 -8.946900000000000686e-02 6.473999999999999720e-03 3.051600000000000146e-02 9.392799999999999760e-02
2.126300000000000065e-02 -3.056000000000000036e-02 8.447200000000000542e-02 2.824099999999999874e-02 1.446099999999999990e-02 -8.936700000000000199e-02 -4.948000000000000315e-02 -9.069000000000000672e-03 -1.040520000000000056e-01 -1.100000000000000039e-04 2.528700000000000045e-02 1.092980000000000063e-01
3.290799999999999975e-02 -3.184000000000000025e-02 9.692199999999999427e-02 3.901899999999999813e-02 1.283899999999999972e-02 -1.029700000000000060e-01 -6.521899999999999920e-02 -9.579999999999999757e-04 -1.185250000000000054e-01 -6.747999999999999658e-03 2.008899999999999922e-02 1.248689999999999939e-01
3.710299999999999709e-02 -2.981699999999999975e-02 -4.434199999999999947e-02 3.204400000000000304e-02 4.894799999999999846e-02 4.140200000000000130e-02 -3.156300000000000078e-02 -4.850800000000000251e-02 5.147700000000000192e-02 -3.764399999999999691e-02 2.936799999999999827e-02 -4.851500000000000257e-02
6.180000000000000077e-02 5.177000000000000178e-03 -2.581200000000000161e-02 2.083300000000000082e-02 2.198400000000000007e-02 2.236799999999999899e-02 -4.816100000000000242e-02 -4.257699999999999679e-02 5.103300000000000197e-02 -3.411000000000000143e-02 1.516900000000000019e-02 -4.834499999999999909e-02
8.339100000000000679e-02 3.399900000000000144e-02 -9.931999999999999856e-03 1.237800000000000011e-02 -2.112000000000000162e-03 7.525999999999999704e-03 -6.207200000000000217e-02 -3.305000000000000299e-02 4.658799999999999747e-02 -3.374400000000000316e-02 1.082000000000000062e-03 -4.410700000000000037e-02
1.061570000000000014e-01 6.526400000000000257e-02 6.864000000000000309e-03 2.651000000000000145e-03 -2.719399999999999942e-02 -9.065999999999999406e-03 -7.694299999999999751e-02 -2.530500000000000110e-02 4.395799999999999708e-02 -3.191399999999999793e-02 -1.291600000000000040e-02 -4.174800000000000039e-02
1.289500000000000091e-01 9.698700000000000376e-02 2.397300000000000125e-02 -7.232999999999999846e-03 -5.249800000000000300e-02 -2.599800000000000028e-02 -9.193300000000000083e-02 -1.752599999999999991e-02 4.160099999999999909e-02 -2.984099999999999947e-02 -2.705799999999999872e-02 -3.952200000000000157e-02
4.315000000000000259e-03 1.173599999999999990e-02 2.262000000000000122e-03 1.016599999999999969e-02 -9.280999999999999320e-03 -8.090000000000000403e-04 -1.012099999999999979e-02 2.733999999999999885e-03 -4.840999999999999817e-03 -4.335999999999999577e-03 -5.232999999999999804e-03 3.422999999999999828e-03
-2.877800000000000150e-02 -3.102000000000000157e-03 -3.725400000000000239e-02 -1.875399999999999984e-02 1.254000000000000080e-02 5.077000000000000263e-02 2.658699999999999952e-02 -2.705899999999999972e-02 4.656500000000000222e-02 2.017499999999999849e-02 1.748900000000000107e-02 -5.926000000000000018e-02
-5.681499999999999745e-02 -1.868500000000000022e-02 -7.757500000000000506e-02 -4.388100000000000334e-02 3.235400000000000081e-02 9.544800000000000506e-02 6.049399999999999916e-02 -5.069400000000000295e-02 9.274799999999999711e-02 4.024699999999999805e-02 3.702500000000000235e-02 -1.106059999999999960e-01
-8.704900000000000138e-02 -3.394199999999999995e-02 -1.174309999999999937e-01 -7.056700000000000472e-02 5.300200000000000050e-02 1.428580000000000128e-01 9.553999999999999992e-02 -7.677499999999999603e-02 1.409239999999999937e-01 6.210899999999999754e-02 5.771799999999999847e-02 -1.663270000000000026e-01
-1.173219999999999957e-01 -4.917099999999999943e-02 -1.570209999999999939e-01 -9.736400000000000610e-02 7.377799999999999636e-02 1.901549999999999907e-01 1.306569999999999954e-01 -1.030770000000000020e-01 1.889149999999999996e-01 8.402500000000000246e-02 7.841399999999999759e-02 -2.220650000000000124e-01
3.917199999999999849e-02 -1.011500000000000073e-02 7.186800000000000133e-02 1.946600000000000066e-02 -2.843400000000000094e-02 -8.105999999999999317e-02 -1.968699999999999964e-02 3.618899999999999895e-02 -6.291800000000000170e-02 -3.898299999999999682e-02 2.556999999999999811e-03 7.208699999999999830e-02
4.239899999999999919e-02 -2.905999999999999903e-02 4.903899999999999926e-02 2.105000000000000100e-03 -2.669600000000000098e-02 -6.033499999999999974e-02 -2.490200000000000052e-02 3.682699999999999863e-02 -3.170800000000000007e-02 -2.008599999999999969e-02 1.848800000000000096e-02 4.298699999999999743e-02
4.218999999999999834e-02 -4.034299999999999692e-02 2.785199999999999829e-02 -9.731999999999999332e-03 -2.309800000000000048e-02 -3.993499999999999828e-02 -2.606100000000000083e-02 3.273600000000000121e-02 -7.008999999999999606e-03 -6.457000000000000066e-03 3.073599999999999943e-02 1.908699999999999980e-02
4.336700000000000277e-02 -5.481500000000000261e-02 6.015999999999999646e-03 -2.400800000000000156e-02 -2.033099999999999838e-02 -1.934299999999999908e-02 -2.887400000000000036e-02 3.065000000000000016e-02 2.026400000000000076e-02 9.468000000000000721e-03 4.451399999999999801e-02 -6.999000000000000013e-03
4.466300000000000131e-02 -6.973100000000000132e-02 -1.585599999999999857e-02 -3.860000000000000236e-02 -1.770800000000000152e-02 1.245000000000000013e-03 -3.175599999999999951e-02 2.879800000000000068e-02 4.801199999999999912e-02 2.571599999999999928e-02 5.867399999999999699e-02 -3.348199999999999787e-02
6.468999999999999750e-02 -1.208500000000000026e-02 -5.806000000000000397e-03 4.666900000000000215e-02 2.225800000000000001e-02 9.908999999999999406e-03 -6.431499999999999717e-02 -1.594900000000000137e-02 -1.069100000000000085e-02 -4.695900000000000074e-02 5.825999999999999582e-03 6.734999999999999667e-03
2.079500000000000098e-02 2.460899999999999893e-02 1.125300000000000085e-02 2.260099999999999956e-02 -3.272000000000000169e-03 -1.323799999999999977e-02 -3.072599999999999984e-02 3.184000000000000198e-03 -2.613199999999999898e-02 -1.198100000000000033e-02 -2.575300000000000158e-02 2.700800000000000076e-02
-1.630699999999999858e-02 5.027800000000000324e-02 2.489099999999999993e-02 -2.445999999999999824e-03 -2.519899999999999918e-02 -2.990699999999999956e-02 -7.209999999999999612e-04 2.606800000000000089e-02 -4.050800000000000234e-02 1.949299999999999991e-02 -5.092300000000000298e-02 4.578200000000000325e-02