7.089549496392842265e+00 -1.079905519230370341e-06 -1.619858278845555511e-06 -1.079905519230370341e-06 7.087888331727886460e+00 -6.479433115382222045e-06 -1.619858278845555511e-06 -6.479433115382222045e-06 7.087887791775126622e+00
7.086596224774126540e+00 5.461622163507597830e-04 1.039409062259231444e-03 5.461622163507597830e-04 7.087490386544049059e+00 -1.363380718028342486e-04 1.039409062259231444e-03 -1.363380718028342486e-04 7.086032244116708512e+00
7.090650190093318095e+00 1.833679571653168546e-03 3.443278748066035035e-03 1.833679571653168546e-03 7.093438776120350120e+00 -4.735385701825173765e-04 3.443278748066035035e-03 -4.735385701825173765e-04 7.088338652329405853e+00
7.095639623568541943e+00 4.509145495546411191e-03 8.528283861742041658e-03 4.509145495546411191e-03 7.102694916302053407e+00 -1.170617582845721438e-03 8.528283861742041658e-03 -1.170617582845721438e-03 7.089609701125539232e+00
7.103438971204804275e+00 8.042326378088373792e-03 1.523017751408571943e-02 8.042326378088373792e-03 7.116096273819322526e+00 -2.087457368672305819e-03 1.523017751408571943e-02 -2.087457368672305819e-03 7.091695808612312746e+00
5.501352931411422453e+00 -1.494623006858260827e-01 -4.245897422415846334e-01 -1.494623006858260827e-01 5.284280959427781532e+00 -3.232388322733285579e-01 -4.245897422415846334e-01 -3.232388322733285579e-01 4.670805979075563386e+00
5.499980895728184827e+00 -1.501209441758445673e-01 -4.258146753485458902e-01 -1.501209441758445673e-01 5.286418923938621894e+00 -3.244762082673808834e-01 -4.258146753485458902e-01 -3.244762082673808834e-01 4.667798671519962639e+00
5.505250873174137638e+00 -1.507701863733942327e-01 -4.275544674724737759e-01 -1.507701863733942327e-01 5.296050548072885000e+00 -3.258830840344732471e-01 -4.275544674724737759e-01 -3.258830840344732471e-01 4.671137236380785929e+00
5.504581998865845094e+00 -1.513917777107416374e-01 -4.313968310061834788e-01 -1.513917777107416374e-01 5.302444256477459206e+00 -3.289769387825070002e-01 -4.313968310061834788e-01 -3.289769387825070002e-01 4.668197673432682215e+00
5.506866236427155670e+00 -1.519489425438176888e-01 -4.364019132113992616e-01 -1.519489425438176888e-01 5.314057341253817235e+00 -3.327145055560500331e-01 -4.364019132113992616e-01 -3.327145055560500331e-01 4.668677415857191093e+00
1.001713640688357820e+01 1.189869533617846087e-01 2.414467964712216363e-01 1.189869533617846087e-01 8.927977760893304193e+00 -3.182444332663706028e-03 2.414467964712216363e-01 -3.182444332663706028e-03 7.445953795424282262e+00
1.001916236965510087e+01 1.208085973240404370e-01 2.427630760115947472e-01 1.208085973240404370e-01 8.926580389841081598e+00 -6.770876234453966983e-03 2.427630760115947472e-01 -6.770876234453966983e-03 7.446574702000303247e+00
1.002964729013322831e+01 1.228491353673005354e-01 2.449456567030610099e-01 1.228491353673005354e-01 8.932929643214908566e+00 -1.164113703432852719e-02 2.449456567030610099e-01 -1.164113703432852719e-02 7.453603693046981782e+00
1.003587225618987588e+01 1.256915783610677850e-01 2.494875763814291825e-01 1.256915783610677850e-01 8.935867222982382785e+00 -1.815760852572669004e-02 2.494875763814291825e-01 -1.815760852572669004e-02 7.454453033881871526e+00
1.004770631682102078e+01 1.289845297539963798e-01 2.554562826604352965e-01 1.289845297539963798e-01 8.944916876701769937e+00 -2.605634578772805798e-02 2.554562826604352965e-01 -2.605634578772805798e-02 7.459510388169868556e+00
1.049301075961130536e+01 -1.269513879254019206e-01 -5.035163160095913054e-02 -1.269513879254019206e-01 6.459438858149241902e+00 2.062424762699003114e-02 -5.035163160095913054e-02 2.062424762699003114e-02 8.670447941395222458e+00
1.049265797223368857e+01 -1.285734660336300683e-01 -4.661654837107248595e-02 -1.285734660336300683e-01 6.458938633275709051e+00 2.533454355509245914e-02 -4.661654837107248595e-02 2.533454355509245914e-02 8.666679385868965468e+00
1.049981094883738209e+01 -1.303233233049859441e-01 -4.121050685413128745e-02 -1.303233233049859441e-01 6.465403302578645928e+00 3.219025428864045330e-02 -4.121050685413128745e-02 3.219025428864045330e-02 8.667035626737478182e+00
1.050792691809458468e+01 -1.325067265102802816e-01 -3.349168904989326817e-02 -1.325067265102802816e-01 6.473298514071691656e+00 4.215038768395624330e-02 -3.349168904989326817e-02 4.215038768395624330e-02 8.665106719245855516e+00
1.051929155967172136e+01 -1.349706594375348068e-01 -2.398954167792914996e-02 -1.349706594375348068e-01 6.484848315891449388e+00 5.476492731206203390e-02 -2.398954167792914996e-02 5.476492731206203390e-02 8.663875151261947849e+00
9.473507274114385979e+00 -2.806973606474488236e-01 1.926449928272531420e-01 -2.806973606474488236e-01 8.579781982792189510e+00 3.693087535742889393e-02 1.926449928272531420e-01 3.693087535742889393e-02 1.056662791126762180e+01
9.478940619685452873e+00 -2.791070170083770896e-01 1.937598891612379859e-01 -2.791070170083770896e-01 8.581021457358684046e+00 3.392811943668944119e-02 1.937598891612379859e-01 3.392811943668944119e-02 1.056951765317996639e+01
9.487002723656452474e+00 -2.767329343622467186e-01 1.937979985361620305e-01 -2.767329343622467186e-01 8.583011029552993776e+00 3.066753388284316345e-02 1.937979985361620305e-01 3.066753388284316345e-02 1.057276982838900281e+01
9.496386303055855294e+00 -2.741964269319572822e-01 1.921403721386036878e-01 -2.741964269319572822e-01 8.585321508966492488e+00 2.565523119886748901e-02 1.921403721386036878e-01 2.565523119886748901e-02 1.057394123172718459e+01
9.508721650660579172e+00 -2.711755362052195029e-01 1.893381503769473451e-01 -2.711755362052195029e-01 8.589882806909987067e+00 1.961686644797129911e-02 1.893381503769473451e-01 1.961686644797129911e-02 1.057605827321003389e+01
7.819775931116929257e+00 -3.643337214345333530e-01 2.424296448459880848e-01 -3.643337214345333530e-01 7.103979702092902748e+00 2.810759625277114426e-01 2.424296448459880848e-01 2.810759625277114426e-01 1.072983942856101613e+01
7.817925079788582643e+00 -3.654141595502769513e-01 2.392895468553095928e-01 -3.654141595502769513e-01 7.105868542762422635e+00 2.807675315829417650e-01 2.392895468553095928e-01 2.807675315829417650e-01 1.072997093012661551e+01
7.822003222280537571e+00 -3.661402075882231322e-01 2.344861533045941027e-01 -3.661402075882231322e-01 7.111797270922996184e+00 2.803278647323010908e-01 2.344861533045941027e-01 2.803278647323010908e-01 1.073378314723035665e+01
7.823679800826998765e+00 -3.661840414434229807e-01 2.266327204111560634e-01 -3.661840414434229807e-01 7.114963934886522345e+00 2.793236709586323641e-01 2.266327204111560634e-01 2.793236709586323641e-01 1.073264320133543492e+01
7.829785192707013231e+00 -3.657587202181203923e-01 2.167525694491151955e-01 -3.657587202181203923e-01 7.122018263316681086e+00 2.779239098492511939e-01 2.167525694491151955e-01 2.779239098492511939e-01 1.073420368658054791e+01
6.775387264306025337e+00 -2.594060787941598889e-01 5.300877902830222199e-01 -2.594060787941598889e-01 1.119954430544408197e+01 1.947820357483449616e-01 5.300877902830222199e-01 1.947820357483449616e-01 8.323462562020750966e+00
6.771952254204870236e+00 -2.616934350575063073e-01 5.314408556045034926e-01 -2.616934350575063073e-01 1.119755274171722625e+01 1.964353994066015963e-01 5.314408556045034926e-01 1.964353994066015963e-01 8.325245798746102821e+00
6.770236074389671010e+00 -2.645442814038045931e-01 5.337133692316103906e-01 -2.645442814038045931e-01 1.119758958326074882e+01 1.993790122293971068e-01 5.337133692316103906e-01 1.993790122293971068e-01 8.330177264636697387e+00
6.772486324062418461e+00 -2.681293081498095643e-01 5.370018082998999631e-01 -2.681293081498095643e-01 1.120294220895464044e+01 2.041363421912516241e-01 5.370018082998999631e-01 2.041363421912516241e-01 8.343297624978315952e+00
6.773983840040159521e+00 -2.726030377406582494e-01 5.414551292659193216e-01 -2.726030377406582494e-01 1.120924794393277146e+01 2.103569970580812798e-01 5.414551292659193216e-01 2.103569970580812798e-01 8.359654210114310757e+00
8.071546395548407915e+00 1.981732861932160583e-01 3.494149924220490977e-01 1.981732861932160583e-01 7.285039654251024288e+00 -4.487971047254812884e-01 3.494149924220490977e-01 -4.487971047254812884e-01 4.803252156266643702e+00
8.071629691275216345e+00 1.960531793225783470e-01 3.521423170014770787e-01 1.960531793225783470e-01 7.290487520370237284e+00 -4.464458318638296341e-01 3.521423170014770787e-01 -4.464458318638296341e-01 4.809486041019622071e+00
8.063772489475011795e+00 1.923775858011387285e-01 3.567070313592463071e-01 1.923775858011387285e-01 7.287537440768952379e+00 -4.429395430118650556e-01 3.567070313592463071e-01 -4.429395430118650556e-01 4.808425987584302952e+00
8.076847205368173022e+00 1.881229920158213331e-01 3.620534232054091750e-01 1.881229920158213331e-01 7.305386602605627999e+00 -4.385701801957977430e-01 3.620534232054091750e-01 -4.385701801957977430e-01 4.830501254439797165e+00
8.077540160698044147e+00 1.818549207430452119e-01 3.698210888823335596e-01 1.818549207430452119e-01 7.311304940354439452e+00 -4.327275411693948248e-01 3.698210888823335596e-01 -4.327275411693948248e-01 4.842457854078299206e+00
1.426711549266287626e+01 -2.669040128724762817e-01 2.397186922779388774e-01 -2.669040128724762817e-01 1.283108025580224698e+01 3.841600496032374079e-01 2.397186922779388774e-01 3.841600496032374079e-01 1.268681699970283638e+01
1.425820335784455573e+01 -2.700704253055168924e-01 2.403886560383045601e-01 -2.700704253055168924e-01 1.283581749578504372e+01 3.858203067047167867e-01 2.403886560383045601e-01 3.858203067047167867e-01 1.269246748214179021e+01
1.424976009660815457e+01 -2.727568486191401242e-01 2.413306978416242254e-01 -2.727568486191401242e-01 1.284826285577397975e+01 3.868199472023665098e-01 2.413306978416242254e-01 3.868199472023665098e-01 1.270496387255289505e+01
1.423808701384977482e+01 -2.746007647152597375e-01 2.429783236504873822e-01 -2.746007647152597375e-01 1.286821221408037452e+01 3.871276454904982733e-01 2.429783236504873822e-01 3.871276454904982733e-01 1.272401312494745618e+01
1.422404303746733056e+01 -2.757777485612415425e-01 2.452216412191327299e-01 -2.757777485612415425e-01 1.289454012253212056e+01 3.866933816503517196e-01 2.452216412191327299e-01 3.866933816503517196e-01 1.274853172704485083e+01
4.456786979231287305e+00 -4.532997304145715001e-01 -1.054911266387564273e-01 -4.532997304145715001e-01 4.168255854872968236e+00 -8.864286190145427265e-04 -1.054911266387564273e-01 -8.864286190145427265e-04 5.280182065357932331e+00
4.454579810921606153e+00 -4.520588416384243580e-01 -1.025380339324725720e-01 -4.520588416384243580e-01 4.168533802829776924e+00 -2.645652774076988779e-03 -1.025380339324725720e-01 -2.645652774076988779e-03 5.277018355431123631e+00
4.465985415067206254e+00 -4.498650281855273159e-01 -9.933898928042322884e-02 -4.498650281855273159e-01 4.181341110485295332e+00 -4.875635630762977998e-03 -9.933898928042322884e-02 -4.875635630762977998e-03 5.284934725015812518e+00
4.465505196675360722e+00 -4.458062646280308017e-01 -9.474157983265288352e-02 -4.458062646280308017e-01 4.182452624086350212e+00 -7.808139599505375429e-03 -9.474157983265288352e-02 -7.808139599505375429e-03 5.278826825620575036e+00
4.473693393240833593e+00 -4.403847492262362717e-01 -8.941883472582073944e-02 -4.403847492262362717e-01 4.192244238144409607e+00 -1.127928945852151900e-02 -8.941883472582073944e-02 -1.127928945852151900e-02 5.279811189856003395e+00
-3.676603148263615870e-03 -5.620360432617966487e-06 7.986827983193952644e-06 -5.620360432617966487e-06 -4.772869241067941547e-03 -7.986827983193952644e-06 7.986827983193952644e-06 -7.986827983193952644e-06 -4.786180621039931408e-03
-4.898292021248468534e-03 -7.773845903642113975e-04 -2.532120279116304730e-04 -7.773845903642113975e-04 -3.004230555456213671e-03 -1.896132124899008533e-04 -2.532120279116304730e-04 -1.896132124899008533e-04 -2.807813748758407422e-03
-3.560646238285392930e-03 -2.632399341571962231e-03 -9.232181531684564976e-04 -2.632399341571962231e-03 3.197985086159622816e-03 -5.519785561718486538e-04 -9.232181531684564976e-04 -5.519785561718486538e-04 3.883077442051370738e-03
-7.386928459122939390e-03 -6.237121037986832414e-03 -2.103493844018229555e-03 -6.237121037986832414e-03 8.745576641597377354e-03 -1.391187111294857771e-03 -2.103493844018229555e-03 -1.391187111294857771e-03 1.058077222706905497e-02
-1.067158541932240919e-02 -1.118126336802771105e-02 -3.710325310859323954e-03 -1.118126336802771105e-02 1.854630200230782469e-02 -2.501652009402639300e-03 -3.710325310859323954e-03 -2.501652009402639300e-03 2.184219968337252488e-02
8.838009457788823520e-01 -3.423295280708572585e-01 1.666302531494217032e-01 -3.423295280708572585e-01 2.232244753836633233e+00 -3.661495978563637510e-01 1.666302531494217032e-01 -3.661495978563637510e-01 2.310044650064612348e+00
8.853156718195893671e-01 -3.427453635108760888e-01 1.665341579367039526e-01 -3.427453635108760888e-01 2.232980040929740451e+00 -3.671910621887912174e-01 1.665341579367039526e-01 -3.671910621887912174e-01 2.315471576702359702e+00
8.965790119024312776e-01 -3.434379416205535218e-01 1.662995471020507210e-01 -3.434379416205535218e-01 2.241333398655087628e+00 -3.676057433319606105e-01 1.662995471020507210e-01 -3.676057433319606105e-01 2.330396057817484490e+00
8.938470798339661627e-01 -3.450551115066504138e-01 1.665650353774270898e-01 -3.450551115066504138e-01 2.234787092647573914e+00 -3.679664610974175964e-01 1.665650353774270898e-01 -3.679664610974175964e-01 2.333691575322699663e+00
8.996797418142997715e-01 -3.471198599961263231e-01 1.669035329285319391e-01 -3.471198599961263231e-01 2.235885406099837436e+00 -3.678464142250735258e-01 1.669035329285319391e-01 -3.678464142250735258e-01 2.346809581868415151e+00
-4.482486339342018233e+00 -3.293286783249975147e-01 5.040844355302039892e-01 -3.293286783249975147e-01 -1.414797215793800245e+00 3.125366741763280776e-01 5.040844355302039892e-01 3.125366741763280776e-01 -1.728494776187037729e+00
-4.483915027881981707e+00 -3.289785697833898515e-01 5.036719830991697178e-01 -3.289785697833898515e-01 -1.416703771781782972e+00 3.127620949390824689e-01 5.036719830991697178e-01 3.127620949390824689e-01 -1.727286901718491308e+00
-4.481021718609625282e+00 -3.280538532756874237e-01 5.018477333297401977e-01 -3.280538532756874237e-01 -1.415338348469513008e+00 3.126969870348536573e-01 5.018477333297401977e-01 3.126969870348536573e-01 -1.727435851405052736e+00
-4.475664443697516148e+00 -3.266104233234451981e-01 4.982698697247142650e-01 -3.266104233234451981e-01 -1.411581438127857968e+00 3.122237262781717426e-01 4.982698697247142650e-01 3.122237262781717426e-01 -1.732336756762048458e+00
-4.465029128964293825e+00 -3.246280104847807380e-01 4.930557093568062044e-01 -3.246280104847807380e-01 -1.402689295396534641e+00 3.114522590356116338e-01 4.930557093568062044e-01 3.114522590356116338e-01 -1.737460933092508153e+00
1.165809490699230677e+00 -3.658286751168988715e-01 2.549738973539927844e-01 -3.658286751168988715e-01 -2.754883058136385454e+00 7.980932209360075413e-01 2.549738973539927844e-01 7.980932209360075413e-01 -2.585392875895083376e-01
1.174366188517319110e+00 -3.668009728809660253e-01 2.583915627911003710e-01 -3.668009728809660253e-01 -2.734978708329074415e+00 7.956657592991378536e-01 2.583915627911003710e-01 7.956657592991378536e-01 -2.401005468427660494e-01
1.166230282549241215e+00 -3.670316623136314349e-01 2.554815334794310888e-01 -3.670316623136314349e-01 -2.747072146724804931e+00 7.958633225648874543e-01 2.554815334794310888e-01 7.958633225648874543e-01 -2.494710740048112219e-01
1.163591231251621672e+00 -3.675792885865176163e-01 2.561016791988084962e-01 -3.675792885865176163e-01 -2.743261742227687705e+00 7.926885823518285967e-01 2.561016791988084962e-01 7.926885823518285967e-01 -2.434928453952985572e-01
1.160988588894215523e+00 -3.681382553489784826e-01 2.569366973522338449e-01 -3.681382553489784826e-01 -2.737533601256691984e+00 7.882577337013974006e-01 2.569366973522338449e-01 7.882577337013974006e-01 -2.343921025115580647e-01
-3.442372368471716904e+00 -2.400106403531490351e-01 -9.514599083766403509e-02 -2.400106403531490351e-01 -1.422112813204706283e+00 -5.280838915924297439e-01 -9.514599083766403509e-02 -5.280838915924297439e-01 -3.058272341548477158e+00
-3.436154575063239403e+00 -2.380463332474576921e-01 -9.433288767707793954e-02 -2.380463332474576921e-01 -1.422553051805840685e+00 -5.297574750935981625e-01 -9.433288767707793954e-02 -5.297574750935981625e-01 -3.052969481473175595e+00
-3.426670525031250136e+00 -2.347317765118713540e-01 -9.164038716196269696e-02 -2.347317765118713540e-01 -1.423411686282267663e+00 -5.306890212041750488e-01 -9.164038716196269696e-02 -5.306890212041750488e-01 -3.046771684926384616e+00
-3.418784993358097157e+00 -2.304306053850630476e-01 -8.764316833279310603e-02 -2.304306053850630476e-01 -1.427966356086458610e+00 -5.310000493144106937e-01 -8.764316833279310603e-02 -5.310000493144106937e-01 -3.043550036686635263e+00
-3.403360644829037440e+00 -2.246653563387582542e-01 -8.167118250104983546e-02 -2.246653563387582542e-01 -1.427333839969105123e+00 -5.305921133360007591e-01 -8.167118250104983546e-02 -5.305921133360007591e-01 -3.034404087439165121e+00
-5.029243695386271362e+00 -1.197191997471940515e-02 4.672282367499092648e-01 -1.197191997471940515e-02 -4.827350010429920069e+00 5.455822983333959986e-01 4.672282367499092648e-01 5.455822983333959986e-01 -5.399386173117787457e+00
-5.032099808615518199e+00 -1.231320645632209311e-02 4.648533182503513661e-01 -1.231320645632209311e-02 -4.829716604868950824e+00 5.478390792047067581e-01 4.648533182503513661e-01 5.478390792047067581e-01 -5.404649540620177106e+00
-5.023413971611877749e+00 -1.238908346958647946e-02 4.614795124875660237e-01 -1.238908346958647946e-02 -4.823273141708786405e+00 5.511081938985578077e-01 4.614795124875660237e-01 5.511081938985578077e-01 -5.401144790982181476e+00
-5.020477179026753944e+00 -1.063750904102334603e-02 4.568013904714511852e-01 -1.063750904102334603e-02 -4.825341990905893219e+00 5.564336716987257070e-01 4.568013904714511852e-01 5.564336716987257070e-01 -5.404554774392640759e+00
-5.011830721232529484e+00 -8.113077608155438991e-03 4.509825520069776217e-01 -8.113077608155438991e-03 -4.823647404276321993e+00 5.629693398370345658e-01 4.509825520069776217e-01 5.629693398370345658e-01 -5.403857794401600856e+00
4.918481569550898769e+00 -9.110346167693385289e-03 2.837537584822588110e-01 -9.110346167693385289e-03 2.123841314329448782e+00 2.895235780686992721e-01 2.837537584822588110e-01 2.895235780686992721e-01 1.767893185670093903e+00
4.916067056379134215e+00 -1.144897057937969281e-02 2.834624252272784362e-01 -1.144897057937969281e-02 2.123764857114239124e+00 2.906710047519731610e-01 2.834624252272784362e-01 2.906710047519731610e-01 1.767565187059121135e+00
4.919037802897236134e+00 -1.386575757167048811e-02 2.824738817533060109e-01 -1.386575757167048811e-02 2.127258013898345457e+00 2.905129742253692027e-01 2.824738817533060109e-01 2.905129742253692027e-01 1.770744840838111456e+00
4.921124601685593625e+00 -1.911032461644877195e-02 2.802324631691351375e-01 -1.911032461644877195e-02 2.128994928553159749e+00 2.882502385737606421e-01 2.802324631691351375e-01 2.882502385737606421e-01 1.773531692121118830e+00
4.925843631961143387e+00 -2.588886783403588146e-02 2.769760679473692311e-01 -2.588886783403588146e-02 2.132886003929434171e+00 2.842017011260140058e-01 2.769760679473692311e-01 2.842017011260140058e-01 1.779006199266657262e+00
2.915101467214439079e+00 -3.608987286371767023e-01 5.425092492282866941e-01 -3.608987286371767023e-01 2.182332976354330878e+00 1.500972327315495403e-01 5.425092492282866941e-01 1.500972327315495403e-01 1.754859662626783168e+00
2.915565585507161384e+00 -3.608677491714078478e-01 5.432054266673702614e-01 -3.608677491714078478e-01 2.183929279382142763e+00 1.512945317141348445e-01 5.432054266673702614e-01 1.512945317141348445e-01 1.754482745793262133e+00
2.919507435679343565e+00 -3.606640878686681040e-01 5.447532525681920701e-01 -3.606640878686681040e-01 2.189140427110132237e+00 1.539186072035192421e-01 5.447532525681920701e-01 1.539186072035192421e-01 1.754977556704848007e+00
2.926362216174513531e+00 -3.602602074260519149e-01 5.479292215033105817e-01 -3.602602074260519149e-01 2.198232039772576307e+00 1.588538082086415337e-01 5.479292215033105817e-01 1.588538082086415337e-01 1.754081733819698563e+00
2.936050470399913515e+00 -3.596208256742112752e-01 5.521427156947805726e-01 -3.596208256742112752e-01 2.211202109441138042e+00 1.654977562284405401e-01 5.521427156947805726e-01 1.654977562284405401e-01 1.753300649696656111e+00
1.495887005282446447e+00 2.628054864426706549e-01 5.190424260288398761e-01 2.628054864426706549e-01 -5.470733109978438424e-01 -3.232188008727724937e-01 5.190424260288398761e-01 -3.232188008727724937e-01 6.456076983631195421e-02
1.497359509509603503e+00 2.631618324656426200e-01 5.160723850026645021e-01 2.631618324656426200e-01 -5.493874986412434769e-01 -3.234496895355907231e-01 5.160723850026645021e-01 -3.234496895355907231e-01 7.012477430904694164e-02
1.501387397572568450e+00 2.634648738355914732e-01 5.130561073437562847e-01 2.634648738355914732e-01 -5.485034071032585112e-01 -3.236820507026360594e-01 5.130561073437562847e-01 -3.236820507026360594e-01 7.718631558080051025e-02
1.501515210939485589e+00 2.645651289941231554e-01 5.116307232518684245e-01 2.645651289941231554e-01 -5.501564403486649546e-01 -3.245125430867525362e-01 5.116307232518684245e-01 -3.245125430867525362e-01 8.070825119131434799e-02
1.504168369055976839e+00 2.660205521722450173e-01 5.109248047253693858e-01 2.660205521722450173e-01 -5.476467041438985994e-01 -3.255586100897248092e-01 5.109248047253693858e-01 -3.255586100897248092e-01 8.693370456288823656e-02
1.274366455511259044e+00 -6.235654554055743148e-02 2.533662414182710210e-01 -6.235654554055743148e-02 -2.339391723976804727e+00 -2.747953361829149621e-01 2.533662414182710210e-01 -2.747953361829149621e-01 4.877569178592455756e-01
1.277792323245513950e+00 -6.205556261402157825e-02 2.525967333450094277e-01 -6.205556261402157825e-02 -2.338799247240628265e+00 -2.734149662094919053e-01 2.525967333450094277e-01 -2.734149662094919053e-01 4.905808197404287752e-01
1.283881964013336985e+00 -5.979448397871526405e-02 2.512635124211618498e-01 -5.979448397871526405e-02 -2.336669830102250156e+00 -2.726890487669699215e-01 2.512635124211618498e-01 -2.726890487669699215e-01 4.965058836370917494e-01
1.285275974592297477e+00 -5.381604379951391431e-02 2.498742464006491193e-01 -5.381604379951391431e-02 -2.341620183772781694e+00 -2.732729259909592034e-01 2.498742464006491193e-01 -2.732729259909592034e-01 4.997102397988123501e-01
1.293561752851671853e+00 -4.539119067063688423e-02 2.481507855444654576e-01 -4.539119067063688423e-02 -2.340266205405725053e+00 -2.746402484286506462e-01 2.481507855444654576e-01 -2.746402484286506462e-01 5.113047545057600729e-01
-5.646183735035470441e+00 1.260627706070939784e-05 -3.232378733515230554e-07 1.260627706070939784e-05 -5.646334363884451868e+00 1.066684982060025919e-05 -3.232378733515230554e-07 1.066684982060025919e-05 -5.646332747695084642e+00
-5.646836675539639749e+00 1.448105672614822983e-04 8.048623046452923026e-05 1.448105672614822983e-04 -5.648001301597325607e+00 8.960153849304218531e-04 8.048623046452923026e-05 8.960153849304218531e-04 -5.647389412303071232e+00
-5.647568486084907136e+00 5.401304863703949074e-04 3.620264181537057729e-04 5.401304863703949074e-04 -5.651988764002989996e+00 3.631900744977712737e-03 3.620264181537057729e-04 3.631900744977712737e-03 -5.649632683144130141e+00
-5.638195234233460695e+00 1.203414602487720177e-03 7.246993120541145176e-04 1.203414602487720177e-03 -5.648502966776766776e+00 7.952944635940872864e-03 7.246993120541145176e-04 7.952944635940872864e-03 -5.643151117307685816e+00
-5.634170922710233675e+00 2.136279104980215535e-03 1.219576496155296312e-03 2.136279104980215535e-03 -5.652942638967250133e+00 1.428064924467028693e-02 1.219576496155296312e-03 1.428064924467028693e-02 -5.643378030294778469e+00
-4.975014038983052167e+00 -2.083841341482690346e-01 -6.326207376914443348e-01 -2.083841341482690346e-01 -2.739673451866613263e+00 6.082818475717836904e-03 -6.326207376914443348e-01 6.082818475717836904e-03 -6.074129324388349183e+00
-4.983641308551127302e+00 -2.075542838606019846e-01 -6.344825853540611016e-01 -2.075542838606019846e-01 -2.743113125774079286e+00 6.978358633192573504e-03 -6.344825853540611016e-01 6.978358633192573504e-03 -6.078086583695120559e+00
-4.992133390271193072e+00 -2.068310606079850622e-01 -6.373015375931992965e-01 -2.068310606079850622e-01 -2.746579139097941713e+00 8.244554674413052606e-03 -6.373015375931992965e-01 8.244554674413052606e-03 -6.080972495173531556e+00
-4.984794848052339411e+00 -2.061754312793731558e-01 -6.405555662164260644e-01 -2.061754312793731558e-01 -2.733647120332082903e+00 9.942971018426088881e-03 -6.405555662164260644e-01 9.942971018426088881e-03 -6.066031699229496255e+00
-4.983655588957606852e+00 -2.056143699758949950e-01 -6.445718512033148384e-01 -2.056143699758949950e-01 -2.725998851963798320e+00 1.196222049468822352e-02 -6.445718512033148384e-01 1.196222049468822352e-02 -6.055050383988795915e+00
-6.685137772536303480e+00 -1.107936874035088948e-01 2.750948620024625257e-01 -1.107936874035088948e-01 -6.978963101734526830e+00 6.941532308632655246e-01 2.750948620024625257e-01 6.941532308632655246e-01 -9.221425486115782277e+00
-6.689880337011327782e+00 -1.103830960578143644e-01 2.751417484530312429e-01 -1.103830960578143644e-01 -6.988993453124046518e+00 6.926853500572466293e-01 2.751417484530312429e-01 6.926853500572466293e-01 -9.229320829488333544e+00
-6.676423925698108164e+00 -1.098824157463842432e-01 2.736611413247151958e-01 -1.098824157463842432e-01 -6.977193138225557867e+00 6.893731572277859154e-01 2.736611413247151958e-01 6.893731572277859154e-01 -9.212815459275274677e+00
-6.670158221386038200e+00 -1.093669996933468169e-01 2.711520464128526764e-01 -1.093669996933468169e-01 -6.973902044298854186e+00 6.850043447444374989e-01 2.711520464128526764e-01 6.850043447444374989e-01 -9.203415395742686300e+00
-4.679690635325935766e+00 2.895624836902447319e-01 3.662359942366575916e-01 2.895624836902447319e-01 -2.927695190786566481e+00 -1.158409061256384862e-02 3.662359942366575916e-01 -1.158409061256384862e-02 -6.716627211875968229e+00
-4.685693204985638793e+00 2.894530046614054442e-01 3.680366696586715447e-01 2.894530046614054442e-01 -2.935576726104024647e+00 -1.279758926652977899e-02 3.680366696586715447e-01 -1.279758926652977899e-02 -6.726345703456392933e+00
-4.681732228261993534e+00 2.884829695454105836e-01 3.656758689728286105e-01 2.884829695454105836e-01 -2.933773504658083731e+00 -1.451138162205208373e-02 3.656758689728286105e-01 -1.451138162205208373e-02 -6.727616487648704791e+00
-4.683994688773675641e+00 2.871733584882194545e-01 3.629487590945610909e-01 2.871733584882194545e-01 -2.938658688067047109e+00 -1.623854060318849143e-02 3.629487590945610909e-01 -1.623854060318849143e-02 -6.734683931815665936e+00
-4.676289147360137122e+00 2.851690011520858770e-01 3.573481429622524796e-01 2.851690011520858770e-01 -2.933394465346026880e+00 -1.836606184676631628e-02 3.573481429622524796e-01 -1.836606184676631628e-02 -6.732222244931735489e+00
-3.176463269023623859e+00 -4.474790087263330052e-01 -6.349909283728454312e-01 -4.474790087263330052e-01 -3.442562745334875718e+00 -3.728279006197486312e-01 -6.349909283728454312e-01 -3.728279006197486312e-01 -1.949626728716383761e+00
-3.178542494420958597e+00 -4.479881626734972810e-01 -6.372634408356285807e-01 -4.479881626734972810e-01 -3.443889200978913490e+00 -3.740620354449856189e-01 -6.372634408356285807e-01 -3.740620354449856189e-01 -1.951825137511902231e+00
-3.202424253788678676e+00 -4.497487423015936736e-01 -6.391076958546779707e-01 -4.497487423015936736e-01 -3.462601612024362563e+00 -3.742945357010284968e-01 -6.391076958546779707e-01 -3.742945357010284968e-01 -1.972414841461389790e+00
-3.181924091770468976e+00 -4.508942614913933333e-01 -6.402862529294663929e-01 -4.508942614913933333e-01 -3.436485935853892837e+00 -3.737998937220368689e-01 -6.402862529294663929e-01 -3.737998937220368689e-01 -1.948384565993859674e+00
-3.189655883153696081e+00 -4.540168047707581755e-01 -6.411196104209136992e-01 -4.540168047707581755e-01 -3.436480686844128218e+00 -3.724357687138064033e-01 -6.411196104209136992e-01 -3.724357687138064033e-01 -1.950714817564053183e+00
-6.396674335809552581e+00 5.788468579421535143e-01 -2.815992741189902726e-01 5.788468579421535143e-01 -6.467160709836219823e+00 5.478585048221668030e-01 -2.815992741189902726e-01 5.478585048221668030e-01 -7.609442101451231899e+00
-6.388509569812297784e+00 5.778316254978348443e-01 -2.808408202317846936e-01 5.778316254978348443e-01 -6.461198694597541703e+00 5.478489333849480003e-01 -2.808408202317846936e-01 5.478489333849480003e-01 -7.598877545108515541e+00
-6.391498828670618693e+00 5.741387009791477647e-01 -2.787912124687095816e-01 5.741387009791477647e-01 -6.469935436481013546e+00 5.506487437962468423e-01 -2.787912124687095816e-01 5.506487437962468423e-01 -7.601113300823019614e+00
-6.381761706572994797e+00 5.689618736419767009e-01 -2.768657033399205547e-01 5.689618736419767009e-01 -6.467832030639777408e+00 5.543829245098427227e-01 -2.768657033399205547e-01 5.543829245098427227e-01 -7.591286075195715632e+00
-6.374543522711730859e+00 5.616793301166543850e-01 -2.742787748943518178e-01 5.616793301166543850e-01 -6.471444093016442523e+00 5.603215062298121385e-01 -2.742787748943518178e-01 5.603215062298121385e-01 -7.585929700898300432e+00
-4.391260644930126134e+00 5.158282421804770701e-01 -3.217406404930713282e-01 5.158282421804770701e-01 -4.180644115324990473e+00 4.862181244876206399e-01 -3.217406404930713282e-01 4.862181244876206399e-01 -5.997129578982498543e+00