2.911099910999999985e+00 0.000000000000000000e+00 0.000000000000000000e+00 0.000000000000000000e+00 2.911099910999999985e+00 0.000000000000000000e+00 0.000000000000000000e+00 0.000000000000000000e+00 2.911099910999999985e+00
2.911099910999999985e+00 0.000000000000000000e+00 0.000000000000000000e+00 0.000000000000000000e+00 2.911099910999999985e+00 0.000000000000000000e+00 0.000000000000000000e+00 0.000000000000000000e+00 2.911099910999999985e+00
2.911099910999999985e+00 0.000000000000000000e+00 0.000000000000000000e+00 0.000000000000000000e+00 2.911099910999999985e+00 0.000000000000000000e+00 0.000000000000000000e+00 0.000000000000000000e+00 2.911099910999999985e+00
2.911099910999999985e+00 0.000000000000000000e+00 0.000000000000000000e+00 0.000000000000000000e+00 2.911099910999999985e+00 0.000000000000000000e+00 0.000000000000000000e+00 0.000000000000000000e+00 2.911099910999999985e+00
2.911099910999999985e+00 0.000000000000000000e+00 0.000000000000000000e+00 0.000000000000000000e+00 2.911099910999999985e+00 0.000000000000000000e+00 0.000000000000000000e+00 0.000000000000000000e+00 2.911099910999999985e+00
