5.861199999999999743e-01 1.297099999999999920e+00 2.739399999999999835e+00 2.041529999999999845e+00 2.752590000000000092e+00 1.283849999999999936e+00
5.871899999999999897e-01 1.296370000000000022e+00 2.739749999999999908e+00 2.040459999999999940e+00 2.753319999999999990e+00 1.283509999999999929e+00
5.882600000000000051e-01 1.295639999999999903e+00 2.740099999999999980e+00 2.039390000000000036e+00 2.754049999999999887e+00 1.283160000000000078e+00
5.893300000000000205e-01 1.294910000000000005e+00 2.740450000000000053e+00 2.038320000000000132e+00 2.754779999999999784e+00 1.282810000000000006e+00
5.904000000000000359e-01 1.294180000000000108e+00 2.740790000000000060e+00 2.037249999999999783e+00 2.755510000000000126e+00 1.282459999999999933e+00
