-1.901685595000000006e+01
-1.901683763999999854e+01
-1.901678512999999882e+01
-1.901669841000000005e+01
-1.901657760000000152e+01
