-6.470000000000000057e-04 -3.190000000000000019e-04 8.200000000000000095e-05 7.399999999999999894e-04 2.349999999999999930e-04 8.299999999999999815e-05
-1.081499999999999996e-02 6.610999999999999689e-03 -3.242999999999999789e-03 1.090200000000000023e-02 -6.692000000000000032e-03 3.405000000000000041e-03
-2.113999999999999907e-02 1.365500000000000047e-02 -6.616000000000000353e-03 2.120999999999999969e-02 -1.373100000000000015e-02 6.767999999999999711e-03
-3.114600000000000007e-02 2.046699999999999908e-02 -9.877999999999999628e-03 3.120300000000000157e-02 -2.053500000000000117e-02 1.001600000000000060e-02
-4.152100000000000235e-02 2.755000000000000157e-02 -1.327099999999999981e-02 4.155899999999999872e-02 -2.761299999999999866e-02 1.339300000000000039e-02
