-1.140781227353735439e+00 9.947030755376633031e-05 2.602241792041255658e-05 9.947030755376633031e-05 -1.140920732150397576e+00 -4.696353530015284110e-05 2.602241792041255658e-05 -4.696353530015284110e-05 -1.140452944543047131e+00
-1.140461105419672938e+00 9.793051951113837853e-05 2.602241792041255658e-05 9.793051951113837853e-05 -1.140574279840806282e+00 -4.773342932146681700e-05 2.602241792041255658e-05 -4.773342932146681700e-05 -1.140095097801940405e+00
-1.140346699168105715e+00 -1.847745651153553999e-05 8.022295702091681105e-05 -1.847745651153553999e-05 -1.140499754099542962e+00 -8.237866028059594896e-05 8.022295702091681105e-05 -8.237866028059594896e-05 -1.140059066761742956e+00
-1.140359787366468147e+00 3.972653149980141080e-05 4.865730214704359620e-05 3.972653149980141080e-05 -1.140353166277884966e+00 -6.744271626710473264e-05 4.865730214704359620e-05 -6.744271626710473264e-05 -1.139814856378182251e+00
-1.140371643734396478e+00 1.065533325498549573e-04 1.278024075381208349e-05 1.065533325498549573e-04 -1.140157459217666869e+00 -4.434589562768530681e-05 1.278024075381208349e-05 -4.434589562768530681e-05 -1.139494734444119750e+00
