3.457109034000000136e+00 0.000000000000000000e+00 0.000000000000000000e+00 0.000000000000000000e+00 3.457109034000000136e+00 0.000000000000000000e+00 0.000000000000000000e+00 0.000000000000000000e+00 3.457109034000000136e+00
3.457109034000000136e+00 0.000000000000000000e+00 0.000000000000000000e+00 0.000000000000000000e+00 3.457109034000000136e+00 0.000000000000000000e+00 0.000000000000000000e+00 0.000000000000000000e+00 3.457109034000000136e+00
3.457109034000000136e+00 0.000000000000000000e+00 0.000000000000000000e+00 0.000000000000000000e+00 3.457109034000000136e+00 0.000000000000000000e+00 0.000000000000000000e+00 0.000000000000000000e+00 3.457109034000000136e+00
3.457109034000000136e+00 0.000000000000000000e+00 0.000000000000000000e+00 0.000000000000000000e+00 3.457109034000000136e+00 0.000000000000000000e+00 0.000000000000000000e+00 0.000000000000000000e+00 3.457109034000000136e+00
3.457109034000000136e+00 0.000000000000000000e+00 0.000000000000000000e+00 0.000000000000000000e+00 3.457109034000000136e+00 0.000000000000000000e+00 0.000000000000000000e+00 0.000000000000000000e+00 3.457109034000000136e+00
3.485132967000000193e+00 0.000000000000000000e+00 0.000000000000000000e+00 3.944334599999999719e-02 3.402584913000000100e+00 0.000000000000000000e+00 -2.539231999999999947e-02 -7.212347400000000686e-02 3.401488312000000125e+00
3.485132967000000193e+00 0.000000000000000000e+00 0.000000000000000000e+00 3.944334599999999719e-02 3.402584913000000100e+00 0.000000000000000000e+00 -2.539231999999999947e-02 -7.212347400000000686e-02 3.401488312000000125e+00
3.485132967000000193e+00 0.000000000000000000e+00 0.000000000000000000e+00 3.944334599999999719e-02 3.402584913000000100e+00 0.000000000000000000e+00 -2.539231999999999947e-02 -7.212347400000000686e-02 3.401488312000000125e+00
3.485132967000000193e+00 0.000000000000000000e+00 0.000000000000000000e+00 3.944334599999999719e-02 3.402584913000000100e+00 0.000000000000000000e+00 -2.539231999999999947e-02 -7.212347400000000686e-02 3.401488312000000125e+00
3.485132967000000193e+00 0.000000000000000000e+00 0.000000000000000000e+00 3.944334599999999719e-02 3.402584913000000100e+00 0.000000000000000000e+00 -2.539231999999999947e-02 -7.212347400000000686e-02 3.401488312000000125e+00
3.553844624999999979e+00 0.000000000000000000e+00 0.000000000000000000e+00 9.949045999999999584e-03 3.495195804000000184e+00 0.000000000000000000e+00 -1.012882000000000018e-02 -6.083219499999999863e-02 3.402227002000000056e+00
3.553844624999999979e+00 0.000000000000000000e+00 0.000000000000000000e+00 9.949045999999999584e-03 3.495195804000000184e+00 0.000000000000000000e+00 -1.012882000000000018e-02 -6.083219499999999863e-02 3.402227002000000056e+00
3.553844624999999979e+00 0.000000000000000000e+00 0.000000000000000000e+00 9.949045999999999584e-03 3.495195804000000184e+00 0.000000000000000000e+00 -1.012882000000000018e-02 -6.083219499999999863e-02 3.402227002000000056e+00
3.553844624999999979e+00 0.000000000000000000e+00 0.000000000000000000e+00 9.949045999999999584e-03 3.495195804000000184e+00 0.000000000000000000e+00 -1.012882000000000018e-02 -6.083219499999999863e-02 3.402227002000000056e+00
3.553844624999999979e+00 0.000000000000000000e+00 0.000000000000000000e+00 9.949045999999999584e-03 3.495195804000000184e+00 0.000000000000000000e+00 -1.012882000000000018e-02 -6.083219499999999863e-02 3.402227002000000056e+00
3.558759917999999800e+00 0.000000000000000000e+00 0.000000000000000000e+00 1.290955199999999949e-02 3.372995915000000178e+00 0.000000000000000000e+00 6.113915999999999622e-03 9.673518899999999920e-02 3.376578965000000210e+00
3.558759917999999800e+00 0.000000000000000000e+00 0.000000000000000000e+00 1.290955199999999949e-02 3.372995915000000178e+00 0.000000000000000000e+00 6.113915999999999622e-03 9.673518899999999920e-02 3.376578965000000210e+00
3.558759917999999800e+00 0.000000000000000000e+00 0.000000000000000000e+00 1.290955199999999949e-02 3.372995915000000178e+00 0.000000000000000000e+00 6.113915999999999622e-03 9.673518899999999920e-02 3.376578965000000210e+00
3.558759917999999800e+00 0.000000000000000000e+00 0.000000000000000000e+00 1.290955199999999949e-02 3.372995915000000178e+00 0.000000000000000000e+00 6.113915999999999622e-03 9.673518899999999920e-02 3.376578965000000210e+00
3.558759917999999800e+00 0.000000000000000000e+00 0.000000000000000000e+00 1.290955199999999949e-02 3.372995915000000178e+00 0.000000000000000000e+00 6.113915999999999622e-03 9.673518899999999920e-02 3.376578965000000210e+00
3.499656326999999845e+00 0.000000000000000000e+00 0.000000000000000000e+00 -4.145905500000000160e-02 3.512493861999999911e+00 0.000000000000000000e+00 9.344084399999999513e-02 9.196947999999999929e-03 3.480876272999999799e+00
3.499656326999999845e+00 0.000000000000000000e+00 0.000000000000000000e+00 -4.145905500000000160e-02 3.512493861999999911e+00 0.000000000000000000e+00 9.344084399999999513e-02 9.196947999999999929e-03 3.480876272999999799e+00
3.499656326999999845e+00 0.000000000000000000e+00 0.000000000000000000e+00 -4.145905500000000160e-02 3.512493861999999911e+00 0.000000000000000000e+00 9.344084399999999513e-02 9.196947999999999929e-03 3.480876272999999799e+00
3.499656326999999845e+00 0.000000000000000000e+00 0.000000000000000000e+00 -4.145905500000000160e-02 3.512493861999999911e+00 0.000000000000000000e+00 9.344084399999999513e-02 9.196947999999999929e-03 3.480876272999999799e+00
3.499656326999999845e+00 0.000000000000000000e+00 0.000000000000000000e+00 -4.145905500000000160e-02 3.512493861999999911e+00 0.000000000000000000e+00 9.344084399999999513e-02 9.196947999999999929e-03 3.480876272999999799e+00
3.564029931999999956e+00 0.000000000000000000e+00 0.000000000000000000e+00 0.000000000000000000e+00 3.564029931999999956e+00 0.000000000000000000e+00 0.000000000000000000e+00 0.000000000000000000e+00 3.564029931999999956e+00
3.564029931999999956e+00 0.000000000000000000e+00 0.000000000000000000e+00 0.000000000000000000e+00 3.564029931999999956e+00 0.000000000000000000e+00 0.000000000000000000e+00 0.000000000000000000e+00 3.564029931999999956e+00
3.564029931999999956e+00 0.000000000000000000e+00 0.000000000000000000e+00 0.000000000000000000e+00 3.564029931999999956e+00 0.000000000000000000e+00 0.000000000000000000e+00 0.000000000000000000e+00 3.564029931999999956e+00
3.564029931999999956e+00 0.000000000000000000e+00 0.000000000000000000e+00 0.000000000000000000e+00 3.564029931999999956e+00 0.000000000000000000e+00 0.000000000000000000e+00 0.000000000000000000e+00 3.564029931999999956e+00
3.564029931999999956e+00 0.000000000000000000e+00 0.000000000000000000e+00 0.000000000000000000e+00 3.564029931999999956e+00 0.000000000000000000e+00 0.000000000000000000e+00 0.000000000000000000e+00 3.564029931999999956e+00
3.661261408000000106e+00 0.000000000000000000e+00 0.000000000000000000e+00 -4.388720100000000068e-02 3.591869831999999985e+00 0.000000000000000000e+00 1.744930899999999965e-02 9.742866499999999763e-02 3.560904632999999819e+00
3.661261408000000106e+00 0.000000000000000000e+00 0.000000000000000000e+00 -4.388720100000000068e-02 3.591869831999999985e+00 0.000000000000000000e+00 1.744930899999999965e-02 9.742866499999999763e-02 3.560904632999999819e+00
3.661261408000000106e+00 0.000000000000000000e+00 0.000000000000000000e+00 -4.388720100000000068e-02 3.591869831999999985e+00 0.000000000000000000e+00 1.744930899999999965e-02 9.742866499999999763e-02 3.560904632999999819e+00
3.661261408000000106e+00 0.000000000000000000e+00 0.000000000000000000e+00 -4.388720100000000068e-02 3.591869831999999985e+00 0.000000000000000000e+00 1.744930899999999965e-02 9.742866499999999763e-02 3.560904632999999819e+00
3.661261408000000106e+00 0.000000000000000000e+00 0.000000000000000000e+00 -4.388720100000000068e-02 3.591869831999999985e+00 0.000000000000000000e+00 1.744930899999999965e-02 9.742866499999999763e-02 3.560904632999999819e+00
3.552092857999999964e+00 0.000000000000000000e+00 0.000000000000000000e+00 -4.314466899999999661e-02 3.610214694000000168e+00 0.000000000000000000e+00 -6.428357599999999505e-02 5.782790499999999889e-02 3.661445257000000009e+00
3.552092857999999964e+00 0.000000000000000000e+00 0.000000000000000000e+00 -4.314466899999999661e-02 3.610214694000000168e+00 0.000000000000000000e+00 -6.428357599999999505e-02 5.782790499999999889e-02 3.661445257000000009e+00
3.552092857999999964e+00 0.000000000000000000e+00 0.000000000000000000e+00 -4.314466899999999661e-02 3.610214694000000168e+00 0.000000000000000000e+00 -6.428357599999999505e-02 5.782790499999999889e-02 3.661445257000000009e+00
3.552092857999999964e+00 0.000000000000000000e+00 0.000000000000000000e+00 -4.314466899999999661e-02 3.610214694000000168e+00 0.000000000000000000e+00 -6.428357599999999505e-02 5.782790499999999889e-02 3.661445257000000009e+00
3.552092857999999964e+00 0.000000000000000000e+00 0.000000000000000000e+00 -4.314466899999999661e-02 3.610214694000000168e+00 0.000000000000000000e+00 -6.428357599999999505e-02 5.782790499999999889e-02 3.661445257000000009e+00
3.516318942999999919e+00 0.000000000000000000e+00 0.000000000000000000e+00 8.359391200000000632e-02 3.503758458000000076e+00 0.000000000000000000e+00 8.750324499999999339e-02 1.316573400000000012e-02 3.488405050999999979e+00
3.516318942999999919e+00 0.000000000000000000e+00 0.000000000000000000e+00 8.359391200000000632e-02 3.503758458000000076e+00 0.000000000000000000e+00 8.750324499999999339e-02 1.316573400000000012e-02 3.488405050999999979e+00
3.516318942999999919e+00 0.000000000000000000e+00 0.000000000000000000e+00 8.359391200000000632e-02 3.503758458000000076e+00 0.000000000000000000e+00 8.750324499999999339e-02 1.316573400000000012e-02 3.488405050999999979e+00
3.516318942999999919e+00 0.000000000000000000e+00 0.000000000000000000e+00 8.359391200000000632e-02 3.503758458000000076e+00 0.000000000000000000e+00 8.750324499999999339e-02 1.316573400000000012e-02 3.488405050999999979e+00
3.516318942999999919e+00 0.000000000000000000e+00 0.000000000000000000e+00 8.359391200000000632e-02 3.503758458000000076e+00 0.000000000000000000e+00 8.750324499999999339e-02 1.316573400000000012e-02 3.488405050999999979e+00
3.631096385999999843e+00 0.000000000000000000e+00 0.000000000000000000e+00 6.195416000000000117e-02 3.665087538999999950e+00 0.000000000000000000e+00 -1.040732770000000057e-01 -9.762695400000000190e-02 3.605760258000000107e+00
3.631096385999999843e+00 0.000000000000000000e+00 0.000000000000000000e+00 6.195416000000000117e-02 3.665087538999999950e+00 0.000000000000000000e+00 -1.040732770000000057e-01 -9.762695400000000190e-02 3.605760258000000107e+00
3.631096385999999843e+00 0.000000000000000000e+00 0.000000000000000000e+00 6.195416000000000117e-02 3.665087538999999950e+00 0.000000000000000000e+00 -1.040732770000000057e-01 -9.762695400000000190e-02 3.605760258000000107e+00
3.631096385999999843e+00 0.000000000000000000e+00 0.000000000000000000e+00 6.195416000000000117e-02 3.665087538999999950e+00 0.000000000000000000e+00 -1.040732770000000057e-01 -9.762695400000000190e-02 3.605760258000000107e+00
3.631096385999999843e+00 0.000000000000000000e+00 0.000000000000000000e+00 6.195416000000000117e-02 3.665087538999999950e+00 0.000000000000000000e+00 -1.040732770000000057e-01 -9.762695400000000190e-02 3.605760258000000107e+00
3.670950830000000220e+00 0.000000000000000000e+00 0.000000000000000000e+00 0.000000000000000000e+00 3.670950830000000220e+00 0.000000000000000000e+00 0.000000000000000000e+00 0.000000000000000000e+00 3.670950830000000220e+00
3.670950830000000220e+00 0.000000000000000000e+00 0.000000000000000000e+00 0.000000000000000000e+00 3.670950830000000220e+00 0.000000000000000000e+00 0.000000000000000000e+00 0.000000000000000000e+00 3.670950830000000220e+00
3.670950830000000220e+00 0.000000000000000000e+00 0.000000000000000000e+00 0.000000000000000000e+00 3.670950830000000220e+00 0.000000000000000000e+00 0.000000000000000000e+00 0.000000000000000000e+00 3.670950830000000220e+00
3.670950830000000220e+00 0.000000000000000000e+00 0.000000000000000000e+00 0.000000000000000000e+00 3.670950830000000220e+00 0.000000000000000000e+00 0.000000000000000000e+00 0.000000000000000000e+00 3.670950830000000220e+00
3.670950830000000220e+00 0.000000000000000000e+00 0.000000000000000000e+00 0.000000000000000000e+00 3.670950830000000220e+00 0.000000000000000000e+00 0.000000000000000000e+00 0.000000000000000000e+00 3.670950830000000220e+00
3.708582869999999865e+00 0.000000000000000000e+00 0.000000000000000000e+00 -9.946761499999999534e-02 3.677148326000000189e+00 0.000000000000000000e+00 -5.193466100000000002e-02 3.452877800000000302e-02 3.686499438999999878e+00
3.708582869999999865e+00 0.000000000000000000e+00 0.000000000000000000e+00 -9.946761499999999534e-02 3.677148326000000189e+00 0.000000000000000000e+00 -5.193466100000000002e-02 3.452877800000000302e-02 3.686499438999999878e+00
3.708582869999999865e+00 0.000000000000000000e+00 0.000000000000000000e+00 -9.946761499999999534e-02 3.677148326000000189e+00 0.000000000000000000e+00 -5.193466100000000002e-02 3.452877800000000302e-02 3.686499438999999878e+00
3.708582869999999865e+00 0.000000000000000000e+00 0.000000000000000000e+00 -9.946761499999999534e-02 3.677148326000000189e+00 0.000000000000000000e+00 -5.193466100000000002e-02 3.452877800000000302e-02 3.686499438999999878e+00
3.708582869999999865e+00 0.000000000000000000e+00 0.000000000000000000e+00 -9.946761499999999534e-02 3.677148326000000189e+00 0.000000000000000000e+00 -5.193466100000000002e-02 3.452877800000000302e-02 3.686499438999999878e+00
3.688956228999999976e+00 0.000000000000000000e+00 0.000000000000000000e+00 9.249150600000000111e-02 3.630783380000000005e+00 0.000000000000000000e+00 -5.759511999999999618e-03 9.987287599999999932e-02 3.586618995999999893e+00
3.688956228999999976e+00 0.000000000000000000e+00 0.000000000000000000e+00 9.249150600000000111e-02 3.630783380000000005e+00 0.000000000000000000e+00 -5.759511999999999618e-03 9.987287599999999932e-02 3.586618995999999893e+00
3.688956228999999976e+00 0.000000000000000000e+00 0.000000000000000000e+00 9.249150600000000111e-02 3.630783380000000005e+00 0.000000000000000000e+00 -5.759511999999999618e-03 9.987287599999999932e-02 3.586618995999999893e+00
3.688956228999999976e+00 0.000000000000000000e+00 0.000000000000000000e+00 9.249150600000000111e-02 3.630783380000000005e+00 0.000000000000000000e+00 -5.759511999999999618e-03 9.987287599999999932e-02 3.586618995999999893e+00
3.688956228999999976e+00 0.000000000000000000e+00 0.000000000000000000e+00 9.249150600000000111e-02 3.630783380000000005e+00 0.000000000000000000e+00 -5.759511999999999618e-03 9.987287599999999932e-02 3.586618995999999893e+00
3.618234504000000129e+00 0.000000000000000000e+00 0.000000000000000000e+00 -5.546452600000000011e-02 3.634491151000000198e+00 0.000000000000000000e+00 -7.087825100000000322e-02 1.040817039999999971e-01 3.664517459999999893e+00
3.618234504000000129e+00 0.000000000000000000e+00 0.000000000000000000e+00 -5.546452600000000011e-02 3.634491151000000198e+00 0.000000000000000000e+00 -7.087825100000000322e-02 1.040817039999999971e-01 3.664517459999999893e+00
3.618234504000000129e+00 0.000000000000000000e+00 0.000000000000000000e+00 -5.546452600000000011e-02 3.634491151000000198e+00 0.000000000000000000e+00 -7.087825100000000322e-02 1.040817039999999971e-01 3.664517459999999893e+00
3.618234504000000129e+00 0.000000000000000000e+00 0.000000000000000000e+00 -5.546452600000000011e-02 3.634491151000000198e+00 0.000000000000000000e+00 -7.087825100000000322e-02 1.040817039999999971e-01 3.664517459999999893e+00
3.618234504000000129e+00 0.000000000000000000e+00 0.000000000000000000e+00 -5.546452600000000011e-02 3.634491151000000198e+00 0.000000000000000000e+00 -7.087825100000000322e-02 1.040817039999999971e-01 3.664517459999999893e+00
3.676067032999999817e+00 0.000000000000000000e+00 0.000000000000000000e+00 -5.697932299999999839e-02 3.643408046999999872e+00 0.000000000000000000e+00 2.886048199999999980e-02 -5.671490000000000385e-03 3.629655687000000075e+00
3.676067032999999817e+00 0.000000000000000000e+00 0.000000000000000000e+00 -5.697932299999999839e-02 3.643408046999999872e+00 0.000000000000000000e+00 2.886048199999999980e-02 -5.671490000000000385e-03 3.629655687000000075e+00
3.676067032999999817e+00 0.000000000000000000e+00 0.000000000000000000e+00 -5.697932299999999839e-02 3.643408046999999872e+00 0.000000000000000000e+00 2.886048199999999980e-02 -5.671490000000000385e-03 3.629655687000000075e+00
3.676067032999999817e+00 0.000000000000000000e+00 0.000000000000000000e+00 -5.697932299999999839e-02 3.643408046999999872e+00 0.000000000000000000e+00 2.886048199999999980e-02 -5.671490000000000385e-03 3.629655687000000075e+00
3.676067032999999817e+00 0.000000000000000000e+00 0.000000000000000000e+00 -5.697932299999999839e-02 3.643408046999999872e+00 0.000000000000000000e+00 2.886048199999999980e-02 -5.671490000000000385e-03 3.629655687000000075e+00
