0.000000000000000000e+00 0.000000000000000000e+00 0.000000000000000000e+00 0.000000000000000000e+00 1.728550000000000031e+00 1.728550000000000031e+00 1.728550000000000031e+00 0.000000000000000000e+00 1.728550000000000031e+00 1.728550000000000031e+00 1.728550000000000031e+00 0.000000000000000000e+00
4.199999999999999740e-03 3.456920000000000215e+00 3.456440000000000179e+00 3.454909999999999926e+00 1.727130000000000054e+00 1.730120000000000102e+00 1.726679999999999993e+00 2.860000000000000129e-03 1.727749999999999897e+00 1.728709999999999969e+00 1.727289999999999992e+00 3.456980000000000164e+00
8.399999999999999481e-03 3.456729999999999858e+00 3.455760000000000165e+00 3.452719999999999789e+00 1.725710000000000077e+00 1.731680000000000108e+00 1.724809999999999954e+00 5.720000000000000258e-03 1.726939999999999920e+00 1.728860000000000063e+00 1.726029999999999953e+00 3.456850000000000200e+00
1.257999999999999917e-02 3.456539999999999946e+00 3.455090000000000217e+00 3.450540000000000163e+00 1.724299999999999944e+00 1.733239999999999892e+00 1.722949999999999982e+00 8.559999999999999901e-03 1.726129999999999942e+00 1.729020000000000001e+00 1.724790000000000045e+00 3.456719999999999793e+00
1.672999999999999834e-02 3.456339999999999968e+00 3.454429999999999890e+00 3.448360000000000092e+00 1.722900000000000098e+00 1.734790000000000054e+00 1.721100000000000074e+00 1.136999999999999990e-02 1.725330000000000030e+00 1.729170000000000096e+00 1.723549999999999915e+00 3.456599999999999895e+00
3.449999999999999942e-03 2.579999999999999828e-03 1.399999999999999986e-03 9.400000000000000369e-03 1.662830000000000030e+00 1.700960000000000027e+00 1.732429999999999914e+00 -3.072000000000000078e-02 1.694450000000000012e+00 1.759239999999999915e+00 1.698739999999999917e+00 3.099999999999999891e-03
-2.300999999999999920e-02 -7.088999999999999468e-02 3.401320000000000121e+00 1.341000000000000004e-02 1.664979999999999905e+00 1.699300000000000033e+00 1.731470000000000065e+00 -3.040999999999999953e-02 1.696299999999999919e+00 1.757200000000000095e+00 1.697529999999999983e+00 4.369999999999999753e-03
1.535000000000000080e-02 3.330340000000000078e+00 3.399760000000000115e+00 1.739999999999999880e-02 1.667130000000000001e+00 1.697640000000000038e+00 1.730509999999999993e+00 -3.009999999999999828e-02 1.698150000000000048e+00 1.755169999999999897e+00 1.696320000000000050e+00 5.640000000000000048e-03
1.426999999999999970e-02 3.328990000000000116e+00 3.398190000000000044e+00 2.137000000000000011e-02 1.669289999999999941e+00 1.695990000000000109e+00 1.729559999999999986e+00 -2.980999999999999969e-02 1.700010000000000021e+00 1.753160000000000052e+00 1.695130000000000026e+00 6.890000000000000291e-03
3.498310000000000031e+00 3.327640000000000153e+00 3.396619999999999973e+00 2.529999999999999957e-02 1.671450000000000102e+00 1.694350000000000023e+00 1.728620000000000045e+00 -2.954000000000000029e-02 1.701869999999999994e+00 1.751179999999999959e+00 1.693959999999999910e+00 8.120000000000000481e-03
1.628999999999999893e-02 3.489840000000000053e+00 3.710000000000000190e-03 3.551320000000000032e+00 1.720860000000000056e+00 1.700620000000000021e+00 1.765989999999999949e+00 -2.673000000000000029e-02 1.706569999999999920e+00 1.773760000000000003e+00 1.689910000000000023e+00 3.395490000000000119e+00
1.885999999999999829e-02 3.489700000000000024e+00 7.349999999999999763e-03 3.552299999999999791e+00 1.721589999999999954e+00 1.699680000000000080e+00 1.764180000000000081e+00 -2.850000000000000103e-02 1.703600000000000003e+00 1.772199999999999998e+00 1.691089999999999982e+00 3.396020000000000039e+00
2.139999999999999888e-02 3.489580000000000126e+00 1.097000000000000058e-02 3.553279999999999994e+00 1.722310000000000008e+00 1.698739999999999917e+00 1.762389999999999901e+00 -3.026999999999999830e-02 1.700620000000000021e+00 1.770639999999999992e+00 1.692250000000000032e+00 3.396560000000000024e+00
2.392999999999999988e-02 3.489469999999999850e+00 1.457999999999999921e-02 4.099999999999999912e-04 1.723019999999999996e+00 1.697810000000000041e+00 1.770569999999999977e+00 3.463159999999999794e+00 1.697650000000000103e+00 1.769079999999999986e+00 1.693400000000000016e+00 3.397120000000000140e+00
2.641999999999999904e-02 3.489370000000000083e+00 1.815999999999999906e-02 1.369999999999999907e-03 1.723710000000000075e+00 1.696879999999999944e+00 1.768829999999999902e+00 3.461409999999999876e+00 1.694679999999999964e+00 1.767539999999999889e+00 1.694539999999999935e+00 3.397670000000000190e+00
3.259999999999999877e-03 2.530000000000000131e-03 2.980000000000000010e-03 3.568099999999999827e+00 1.733249999999999957e+00 1.687810000000000032e+00 1.792929999999999913e+00 3.421250000000000124e+00 1.684530000000000083e+00 1.788489999999999913e+00 1.690490000000000048e+00 1.330000000000000019e-03
3.429999999999999889e-03 4.250000000000000305e-03 2.429999999999999868e-03 1.276000000000000051e-02 1.734099999999999975e+00 1.689400000000000013e+00 1.792850000000000055e+00 3.419999999999999929e+00 1.682220000000000049e+00 1.784980000000000011e+00 1.689289999999999958e+00 2.560000000000000209e-03
3.599999999999999901e-03 5.969999999999999613e-03 1.860000000000000108e-03 1.616000000000000075e-02 1.734939999999999927e+00 1.691000000000000059e+00 1.792780000000000040e+00 3.418750000000000178e+00 1.679920000000000080e+00 1.781490000000000018e+00 1.688090000000000090e+00 3.789999999999999966e-03
3.759999999999999887e-03 7.680000000000000195e-03 1.299999999999999940e-03 1.955000000000000140e-02 1.735789999999999944e+00 1.692600000000000104e+00 1.792720000000000091e+00 3.417510000000000048e+00 1.677629999999999955e+00 1.778010000000000090e+00 1.686900000000000066e+00 5.000000000000000104e-03
3.899999999999999821e-03 9.379999999999999449e-03 7.299999999999999632e-04 2.291999999999999940e-02 1.736639999999999961e+00 1.694199999999999928e+00 1.792680000000000051e+00 3.416269999999999918e+00 1.675380000000000091e+00 1.774559999999999915e+00 1.685699999999999976e+00 6.190000000000000190e-03
3.457580000000000098e+00 3.511769999999999836e+00 4.600000000000000139e-04 2.641999999999999904e-02 1.760880000000000001e+00 1.740690000000000071e+00 1.798529999999999962e+00 7.369999999999999815e-03 1.741929999999999978e+00 1.830929999999999946e+00 1.764100000000000001e+00 3.480799999999999894e+00
3.457129999999999814e+00 3.511610000000000120e+00 8.000000000000000383e-04 2.735999999999999890e-02 1.762150000000000105e+00 1.741470000000000073e+00 1.799989999999999979e+00 7.060000000000000303e-03 1.737549999999999928e+00 1.735500000000000043e+00 1.754080000000000084e+00 3.220000000000000206e-03
3.456690000000000040e+00 3.511460000000000026e+00 1.139999999999999954e-03 2.829999999999999877e-02 1.763409999999999922e+00 1.742250000000000076e+00 1.801449999999999996e+00 6.749999999999999924e-03 1.733170000000000099e+00 1.733510000000000106e+00 1.753270000000000106e+00 6.499999999999999702e-03
3.456269999999999953e+00 3.511309999999999931e+00 1.479999999999999979e-03 2.925000000000000169e-02 1.764669999999999961e+00 1.743030000000000079e+00 1.802899999999999947e+00 6.440000000000000412e-03 1.728809999999999958e+00 1.731510000000000105e+00 1.752459999999999907e+00 9.759999999999999579e-03
3.455849999999999866e+00 3.511159999999999837e+00 1.799999999999999951e-03 3.020000000000000115e-02 1.765930000000000000e+00 1.743819999999999926e+00 1.804329999999999989e+00 6.119999999999999572e-03 1.724480000000000013e+00 1.729510000000000103e+00 1.751659999999999995e+00 1.299999999999999940e-02
0.000000000000000000e+00 0.000000000000000000e+00 0.000000000000000000e+00 0.000000000000000000e+00 1.782010000000000094e+00 1.782010000000000094e+00 1.782010000000000094e+00 0.000000000000000000e+00 1.782010000000000094e+00 1.782010000000000094e+00 1.782010000000000094e+00 0.000000000000000000e+00
3.563989999999999991e+00 3.561910000000000132e+00 3.561609999999999943e+00 2.400000000000000061e-04 1.783719999999999972e+00 1.786599999999999966e+00 1.781870000000000065e+00 3.563610000000000166e+00 1.779600000000000071e+00 1.781959999999999988e+00 1.782710000000000017e+00 8.000000000000000654e-05
3.563950000000000173e+00 3.559800000000000075e+00 3.559200000000000141e+00 4.800000000000000122e-04 1.785420000000000007e+00 1.791190000000000060e+00 1.781730000000000036e+00 3.563180000000000014e+00 1.777179999999999982e+00 1.781900000000000039e+00 1.783390000000000031e+00 1.600000000000000131e-04
3.563899999999999846e+00 3.557690000000000019e+00 3.556789999999999896e+00 7.200000000000000453e-04 1.787109999999999976e+00 1.795749999999999957e+00 1.781590000000000007e+00 3.562769999999999992e+00 1.774769999999999959e+00 1.781840000000000090e+00 1.784080000000000110e+00 2.500000000000000052e-04
3.563860000000000028e+00 3.555610000000000159e+00 3.554399999999999782e+00 9.499999999999999981e-04 1.788790000000000102e+00 1.800289999999999946e+00 1.781449999999999978e+00 3.562359999999999971e+00 1.772359999999999935e+00 1.781789999999999985e+00 1.784750000000000059e+00 3.400000000000000244e-04
2.370000000000000145e-03 5.599999999999999509e-04 1.500000000000000031e-03 3.646630000000000038e+00 1.846680000000000099e+00 1.777309999999999945e+00 1.793949999999999934e+00 3.637989999999999835e+00 1.780380000000000074e+00 1.824559999999999960e+00 1.890649999999999942e+00 3.556229999999999780e+00
2.830000000000000050e-03 1.850000000000000082e-03 3.850000000000000124e-03 3.645900000000000141e+00 1.844600000000000017e+00 1.776950000000000029e+00 1.794990000000000085e+00 3.639879999999999782e+00 1.776270000000000016e+00 1.823830000000000062e+00 1.889639999999999986e+00 3.558520000000000127e+00
3.289999999999999956e-03 3.129999999999999970e-03 6.199999999999999782e-03 3.645169999999999799e+00 1.842530000000000001e+00 1.776589999999999892e+00 1.839920000000000000e+00 4.988999999999999685e-02 1.772159999999999958e+00 1.823090000000000099e+00 1.888640000000000096e+00 3.560799999999999965e+00
3.739999999999999835e-03 4.400000000000000265e-03 8.519999999999999796e-03 3.644439999999999902e+00 1.840459999999999985e+00 1.776240000000000041e+00 1.840959999999999930e+00 5.176999999999999658e-02 1.768070000000000030e+00 1.804920000000000080e+00 1.790219999999999922e+00 2.170000000000000054e-03
4.179999999999999688e-03 5.660000000000000100e-03 1.082999999999999935e-02 3.643710000000000004e+00 1.838400000000000034e+00 1.775910000000000100e+00 1.842000000000000082e+00 5.362999999999999712e-02 1.764010000000000078e+00 1.804189999999999960e+00 1.789250000000000007e+00 4.420000000000000318e-03
1.969999999999999963e-03 3.360000000000000139e-03 2.840000000000000076e-03 -5.287000000000000033e-02 1.825919999999999987e+00 1.833309999999999995e+00 1.699650000000000105e+00 3.633150000000000102e+00 1.834810000000000052e+00 1.684639999999999915e+00 1.870160000000000045e+00 3.659800000000000164e+00
6.230000000000000294e-03 2.639999999999999986e-03 4.919999999999999894e-03 3.497970000000000024e+00 1.825120000000000076e+00 1.834419999999999940e+00 1.697619999999999907e+00 3.635279999999999845e+00 1.834019999999999984e+00 1.683959999999999901e+00 1.869499999999999940e+00 3.657550000000000079e+00
1.047000000000000014e-02 1.910000000000000022e-03 7.000000000000000146e-03 3.496710000000000207e+00 1.824340000000000073e+00 1.835530000000000106e+00 1.695589999999999931e+00 3.637410000000000032e+00 1.833220000000000072e+00 1.683289999999999953e+00 1.868829999999999991e+00 3.655310000000000059e+00
1.468999999999999993e-02 1.170000000000000033e-03 9.069999999999999937e-03 3.495439999999999880e+00 1.823569999999999913e+00 1.836619999999999919e+00 1.736730000000000107e+00 2.932999999999999843e-02 1.832419999999999938e+00 1.682649999999999979e+00 1.868149999999999977e+00 3.653080000000000105e+00
1.888000000000000095e-02 4.299999999999999894e-04 1.114000000000000060e-02 3.494149999999999867e+00 1.822810000000000041e+00 1.837709999999999955e+00 1.734730000000000105e+00 3.146000000000000185e-02 1.831609999999999960e+00 1.682020000000000071e+00 1.867469999999999963e+00 3.650869999999999838e+00
1.711199999999999943e-01 3.516880000000000006e+00 3.488350000000000062e+00 8.729000000000000647e-02 1.757449999999999957e+00 1.749379999999999935e+00 1.801299999999999901e+00 7.100000000000000408e-03 1.743919999999999915e+00 1.804049999999999931e+00 1.743919999999999915e+00 1.750000000000000036e-03
3.400000000000000244e-04 1.319999999999999993e-03 2.449999999999999921e-03 3.600159999999999805e+00 1.756129999999999969e+00 1.748080000000000078e+00 1.884710000000000107e+00 3.509450000000000180e+00 1.742539999999999978e+00 1.807390000000000052e+00 1.745379999999999932e+00 2.109999999999999896e-03
6.499999999999999702e-04 2.660000000000000038e-03 4.950000000000000407e-03 3.596729999999999983e+00 1.754820000000000046e+00 1.746769999999999934e+00 1.884530000000000038e+00 3.508039999999999825e+00 1.741170000000000107e+00 1.810710000000000042e+00 1.746850000000000014e+00 2.459999999999999947e-03
9.799999999999999684e-04 4.000000000000000083e-03 7.440000000000000432e-03 3.593309999999999782e+00 1.753509999999999902e+00 1.745460000000000012e+00 1.884349999999999969e+00 3.506629999999999914e+00 1.739810000000000079e+00 1.814009999999999900e+00 1.748329999999999940e+00 2.820000000000000024e-03
1.309999999999999967e-03 5.320000000000000076e-03 9.919999999999999998e-03 3.589920000000000222e+00 1.752210000000000045e+00 1.744150000000000089e+00 1.884160000000000057e+00 3.505209999999999937e+00 1.738459999999999894e+00 1.817280000000000006e+00 1.749819999999999931e+00 3.170000000000000075e-03
4.800000000000000122e-04 2.000000000000000096e-04 3.899999999999999929e-04 3.603619999999999823e+00 1.788070000000000048e+00 1.798890000000000100e+00 1.770170000000000021e+00 -4.728000000000000258e-02 1.799809999999999910e+00 1.847590000000000066e+00 1.831550000000000011e+00 1.180000000000000059e-03
-3.944000000000000283e-02 3.566050000000000164e+00 3.604639999999999844e+00 3.606090000000000018e+00 1.786280000000000090e+00 1.800829999999999931e+00 1.768240000000000034e+00 -4.669000000000000233e-02 1.799299999999999899e+00 1.844999999999999973e+00 1.834249999999999936e+00 1.149999999999999981e-03
-3.724999999999999839e-02 3.564430000000000209e+00 3.603130000000000166e+00 3.608569999999999833e+00 1.784489999999999910e+00 1.802769999999999984e+00 1.766299999999999981e+00 -4.610000000000000209e-02 1.798799999999999955e+00 1.842410000000000103e+00 1.836940000000000017e+00 1.119999999999999902e-03
-3.504999999999999782e-02 3.562829999999999941e+00 3.601620000000000044e+00 -2.003999999999999879e-02 1.782710000000000017e+00 1.804710000000000036e+00 1.764359999999999928e+00 -4.549999999999999878e-02 1.798300000000000010e+00 1.839830000000000076e+00 1.839630000000000098e+00 1.090000000000000040e-03
-3.287999999999999950e-02 3.561240000000000183e+00 3.600109999999999921e+00 -1.756999999999999881e-02 1.780920000000000059e+00 1.806640000000000024e+00 1.762429999999999941e+00 -4.490999999999999853e-02 1.797809999999999908e+00 1.837259999999999893e+00 1.842309999999999892e+00 1.049999999999999935e-03
0.000000000000000000e+00 0.000000000000000000e+00 0.000000000000000000e+00 0.000000000000000000e+00 1.835480000000000000e+00 1.835480000000000000e+00 1.835480000000000000e+00 0.000000000000000000e+00 1.835480000000000000e+00 1.835480000000000000e+00 1.835480000000000000e+00 0.000000000000000000e+00
3.666209999999999969e+00 3.670150000000000023e+00 3.670830000000000037e+00 2.809999999999999998e-03 1.837250000000000050e+00 1.836189999999999989e+00 1.835820000000000007e+00 3.669000000000000039e+00 1.835700000000000109e+00 1.836740000000000039e+00 1.836389999999999967e+00 3.670119999999999827e+00
3.661470000000000002e+00 3.669360000000000177e+00 3.670720000000000205e+00 5.610000000000000403e-03 1.839020000000000099e+00 1.836899999999999977e+00 1.836160000000000014e+00 3.667060000000000208e+00 1.835930000000000062e+00 1.838009999999999922e+00 1.837299999999999933e+00 3.669290000000000163e+00
3.656740000000000101e+00 3.668569999999999887e+00 3.670599999999999863e+00 8.410000000000000808e-03 1.840789999999999926e+00 1.837609999999999966e+00 1.836489999999999956e+00 3.665129999999999999e+00 1.836149999999999949e+00 1.839269999999999960e+00 1.838200000000000056e+00 3.668460000000000054e+00
3.652029999999999887e+00 3.667790000000000106e+00 3.670490000000000030e+00 1.120999999999999948e-02 1.842540000000000067e+00 1.838319999999999954e+00 1.836829999999999963e+00 3.663199999999999790e+00 1.836370000000000058e+00 1.840519999999999934e+00 1.839099999999999957e+00 3.667640000000000011e+00
3.654749999999999943e+00 3.454000000000000126e-02 3.685130000000000017e+00 3.632690000000000197e+00 1.858109999999999928e+00 1.843539999999999957e+00 1.825369999999999937e+00 2.520000000000000018e-02 1.846470000000000056e+00 1.804910000000000014e+00 1.839639999999999942e+00 2.099999999999999870e-03
3.705789999999999917e+00 9.200000000000000278e-04 1.030000000000000100e-03 3.632620000000000182e+00 1.856000000000000094e+00 1.845129999999999937e+00 1.825430000000000108e+00 2.606999999999999942e-02 1.841599999999999904e+00 1.805760000000000032e+00 1.840049999999999963e+00 3.139999999999999996e-03
3.704899999999999860e+00 1.820000000000000003e-03 3.419999999999999863e-03 3.632540000000000102e+00 1.853879999999999972e+00 1.846729999999999983e+00 1.825479999999999992e+00 2.691999999999999948e-02 1.836750000000000105e+00 1.806599999999999984e+00 1.840459999999999985e+00 4.179999999999999688e-03
3.704009999999999803e+00 2.729999999999999788e-03 5.799999999999999600e-03 3.632470000000000088e+00 1.851779999999999982e+00 1.848319999999999963e+00 1.825539999999999941e+00 2.775999999999999995e-02 1.831900000000000084e+00 1.807439999999999936e+00 1.840880000000000072e+00 5.210000000000000221e-03
3.703129999999999811e+00 3.619999999999999954e-03 8.170000000000000179e-03 3.632400000000000073e+00 1.849690000000000056e+00 1.849920000000000009e+00 1.825599999999999890e+00 2.859000000000000083e-02 1.827069999999999972e+00 1.808270000000000044e+00 1.841310000000000002e+00 6.239999999999999887e-03
3.682859999999999800e+00 1.024800000000000016e-01 3.581430000000000113e+00 3.731710000000000083e+00 1.864030000000000076e+00 1.792519999999999891e+00 1.839820000000000011e+00 5.530999999999999805e-02 1.798470000000000013e+00 1.882949999999999902e+00 1.913240000000000052e+00 3.584719999999999906e+00
-3.389999999999999784e-03 1.008200000000000068e-01 3.581280000000000019e+00 3.727139999999999898e+00 1.864610000000000101e+00 1.792210000000000081e+00 1.842179999999999929e+00 5.705999999999999961e-02 1.798780000000000046e+00 1.882640000000000091e+00 1.912469999999999892e+00 3.584859999999999935e+00
9.181000000000000272e-02 3.729929999999999968e+00 3.581139999999999990e+00 3.722570000000000157e+00 1.865189999999999904e+00 1.791889999999999983e+00 1.844530000000000003e+00 5.879000000000000198e-02 1.799090000000000078e+00 1.882339999999999902e+00 1.911699999999999955e+00 3.584999999999999964e+00
9.450999999999999679e-02 3.728260000000000129e+00 3.581010000000000026e+00 3.718020000000000103e+00 1.865779999999999994e+00 1.791570000000000107e+00 1.846880000000000077e+00 6.051999999999999741e-02 1.799379999999999979e+00 1.882030000000000092e+00 1.910940000000000083e+00 3.585150000000000059e+00
9.721000000000000474e-02 3.726579999999999782e+00 3.580890000000000128e+00 3.713480000000000114e+00 1.866370000000000084e+00 1.791239999999999943e+00 1.849210000000000020e+00 6.223000000000000059e-02 1.799660000000000037e+00 1.881729999999999903e+00 1.910199999999999898e+00 3.585300000000000153e+00
3.616299999999999848e+00 8.330000000000000598e-03 4.629999999999999567e-03 -6.286999999999999533e-02 1.869019999999999904e+00 1.833150000000000057e+00 1.774540000000000006e+00 5.322000000000000342e-02 1.832670000000000021e+00 1.702250000000000041e+00 1.925899999999999945e+00 3.662850000000000161e+00
3.617290000000000116e+00 1.193999999999999923e-02 6.539999999999999807e-03 -6.174999999999999933e-02 1.868589999999999973e+00 1.833830000000000071e+00 1.716769999999999907e+00 3.685090000000000199e+00 1.829660000000000064e+00 1.702520000000000033e+00 1.925589999999999913e+00 3.663400000000000212e+00
5.000000000000000240e-05 1.553999999999999999e-02 8.449999999999999178e-03 -6.063999999999999946e-02 1.868170000000000108e+00 1.834500000000000020e+00 1.714460000000000095e+00 3.682469999999999910e+00 1.826659999999999950e+00 1.702790000000000026e+00 1.925270000000000037e+00 3.663959999999999884e+00
1.030000000000000100e-03 1.912000000000000158e-02 1.034999999999999983e-02 -5.954999999999999877e-02 1.867760000000000087e+00 1.835169999999999968e+00 1.712159999999999904e+00 3.679860000000000131e+00 1.823669999999999902e+00 1.703079999999999927e+00 1.924960000000000004e+00 3.664509999999999934e+00
2.000000000000000042e-03 2.268999999999999836e-02 1.222999999999999955e-02 -5.847000000000000114e-02 1.867350000000000065e+00 1.835849999999999982e+00 1.709870000000000001e+00 3.677249999999999908e+00 1.820689999999999920e+00 1.774270000000000014e+00 1.820580000000000087e+00 5.400000000000000069e-04
-5.093000000000000305e-02 3.640550000000000175e+00 5.270000000000000379e-03 -1.220000000000000077e-02 1.817439999999999944e+00 1.812599999999999989e+00 1.795530000000000070e+00 3.638409999999999922e+00 1.818769999999999998e+00 1.843299999999999939e+00 1.814049999999999940e+00 3.621680000000000010e+00
-4.764999999999999791e-02 3.642300000000000093e+00 4.619999999999999975e-03 -1.086999999999999945e-02 1.816049999999999942e+00 1.813129999999999908e+00 1.790999999999999925e+00 3.638459999999999805e+00 1.819879999999999942e+00 1.843450000000000033e+00 1.813749999999999973e+00 3.620649999999999924e+00
1.259000000000000050e-02 6.499999999999999702e-04 3.959999999999999978e-03 -9.539999999999999869e-03 1.814670000000000005e+00 1.813660000000000050e+00 1.786489999999999911e+00 3.638510000000000133e+00 1.820980000000000043e+00 1.843599999999999905e+00 1.813450000000000006e+00 3.619629999999999903e+00
1.583000000000000032e-02 2.399999999999999790e-03 3.310000000000000008e-03 -8.229999999999999469e-03 1.813290000000000068e+00 1.814179999999999904e+00 1.782000000000000028e+00 3.638560000000000016e+00 1.822070000000000078e+00 1.843760000000000066e+00 1.813150000000000039e+00 3.618619999999999948e+00
1.905000000000000096e-02 4.139999999999999583e-03 2.660000000000000038e-03 -6.930000000000000396e-03 1.811909999999999910e+00 1.814699999999999980e+00 1.777539999999999898e+00 3.638609999999999900e+00 1.823139999999999983e+00 1.843920000000000003e+00 1.812859999999999916e+00 3.617640000000000189e+00
