-3.393876079000000345e+01
-3.393850802000000044e+01
-3.393774902999999910e+01
-3.393649411999999899e+01
-3.393475259000000221e+01
-3.380771579999999688e+01
-3.380743884000000321e+01
-3.380664832000000075e+01
-3.380535276999999894e+01
-3.380356622000000044e+01
-3.396834347000000065e+01
-3.396797681999999696e+01
-3.396697806000000242e+01
-3.396535827999999668e+01
-3.396313563999999730e+01
-3.378279407000000134e+01
-3.378246241000000083e+01
-3.378156767000000116e+01
-3.378012173999999845e+01
-3.377813957000000045e+01
-3.400064961999999724e+01
-3.400063614999999828e+01
-3.400005778999999961e+01
-3.399892097000000035e+01
-3.399723939999999800e+01
-3.405067446000000331e+01
-3.405045171999999809e+01
-3.404977748999999676e+01
-3.404866076999999791e+01
-3.404711097999999936e+01
-3.400646205999999694e+01
-3.400627998000000218e+01
-3.400543494000000067e+01
-3.400393960000000249e+01
-3.400181141000000196e+01
-3.400643421000000188e+01
-3.400604522999999801e+01
-3.400527028999999857e+01
-3.400411923000000058e+01
-3.400260094000000066e+01
-3.399922321999999753e+01
-3.399903911999999906e+01
-3.399833236999999997e+01
-3.399711288000000309e+01
-3.399539397000000207e+01
-3.395801421000000175e+01
-3.395847865999999726e+01
-3.395838764999999881e+01
-3.395774183000000335e+01
-3.395654818999999947e+01
-3.391346936000000056e+01
-3.391330271000000351e+01
-3.391279953000000091e+01
-3.391196298999999925e+01
-3.391079810000000094e+01
-3.384388892999999854e+01
-3.384377873999999764e+01
-3.384329785999999984e+01
-3.384244827999999927e+01
-3.384123910000000279e+01
-3.396089752999999689e+01
-3.396074387000000172e+01
-3.396029132999999689e+01
-3.395953999000000323e+01
-3.395849479999999687e+01
-3.395788707999999900e+01
-3.395746505000000326e+01
-3.395667430000000309e+01
-3.395552411999999975e+01
-3.395402234000000163e+01
-3.395575394000000102e+01
-3.395523015999999927e+01
-3.395419889000000069e+01
-3.395267049000000270e+01
-3.395065988000000345e+01
