1.999999999999999909e-06 1.999999999999999909e-06 -1.999999999999999909e-06 0.000000000000000000e+00 0.000000000000000000e+00 0.000000000000000000e+00 0.000000000000000000e+00 0.000000000000000000e+00 0.000000000000000000e+00 0.000000000000000000e+00 0.000000000000000000e+00 0.000000000000000000e+00
-4.494900000000000284e-02 -7.830999999999999420e-03 8.765999999999999487e-03 1.625199999999999909e-02 2.761800000000000019e-02 -1.923199999999999910e-02 2.301200000000000120e-02 -4.540600000000000191e-02 5.709999999999999798e-03 1.693999999999999976e-03 2.596899999999999903e-02 5.219999999999999814e-03
-8.869799999999999907e-02 -1.584699999999999998e-02 1.770100000000000146e-02 3.282700000000000201e-02 5.562299999999999883e-02 -3.908199999999999869e-02 4.731899999999999995e-02 -9.169099999999999473e-02 1.164399999999999984e-02 3.969999999999999571e-03 5.220099999999999740e-02 1.049600000000000012e-02
-1.300290000000000057e-01 -2.353299999999999836e-02 2.594899999999999984e-02 4.967300000000000187e-02 8.309900000000000619e-02 -5.846300000000000108e-02 7.036299999999999499e-02 -1.370300000000000129e-01 1.755400000000000016e-02 5.449999999999999983e-03 7.798099999999999477e-02 1.559900000000000002e-02
-1.730079999999999951e-01 -3.144899999999999779e-02 3.459799999999999681e-02 6.626600000000000545e-02 1.106609999999999955e-01 -7.813299999999999412e-02 9.445900000000000130e-02 -1.827789999999999970e-01 2.348000000000000087e-02 7.656999999999999744e-03 1.038199999999999956e-01 2.078400000000000039e-02
-3.166700000000000070e-02 -3.670299999999999951e-02 -3.826100000000000334e-02 -3.211900000000000172e-02 6.140600000000000225e-02 1.627599999999999880e-02 6.511000000000000294e-03 -7.613699999999999635e-02 8.083500000000000407e-02 5.698799999999999699e-02 5.155400000000000260e-02 -5.883900000000000241e-02
-3.220699999999999952e-02 -1.990099999999999855e-02 -1.938600000000000045e-02 -9.065499999999999947e-02 3.882200000000000234e-02 3.012099999999999847e-02 3.071600000000000025e-02 -8.005600000000000216e-02 5.948699999999999821e-02 9.330800000000000205e-02 6.254899999999999349e-02 -6.871199999999999530e-02
-3.371699999999999697e-02 -4.105000000000000142e-03 -1.704000000000000003e-03 -1.494119999999999893e-01 1.569800000000000015e-02 4.409600000000000325e-02 5.478199999999999736e-02 -8.377700000000000424e-02 3.765000000000000291e-02 1.295910000000000117e-01 7.353700000000000514e-02 -7.861100000000000032e-02
-3.502299999999999858e-02 1.184299999999999936e-02 1.611900000000000138e-02 -2.077019999999999977e-01 -7.544999999999999624e-03 5.795600000000000057e-02 7.860300000000000620e-02 -8.723400000000000598e-02 1.573000000000000093e-02 1.654920000000000002e-01 8.433000000000000218e-02 -8.833900000000000086e-02
-3.481800000000000173e-02 2.852599999999999927e-02 3.493099999999999677e-02 -2.648639999999999883e-01 -3.045799999999999896e-02 7.148300000000000487e-02 1.020530000000000048e-01 -9.042699999999999350e-02 -6.001000000000000258e-03 2.005750000000000033e-01 9.486999999999999600e-02 -9.776500000000000468e-02
-6.641800000000000481e-02 6.779300000000000603e-02 -1.028199999999999947e-02 6.869000000000000106e-03 -3.331499999999999739e-02 -1.481900000000000057e-02 6.704200000000000437e-02 -1.420899999999999941e-02 -7.635799999999999532e-02 -7.948999999999999469e-03 -1.988699999999999843e-02 1.015279999999999933e-01
-1.024879999999999958e-01 7.429299999999999793e-02 -5.503500000000000059e-02 -1.983199999999999893e-02 -4.618599999999999789e-02 6.075999999999999804e-03 9.777199999999999780e-02 1.751600000000000032e-02 -2.949200000000000085e-02 2.155400000000000024e-02 -4.501399999999999846e-02 7.512099999999999334e-02
-1.352710000000000024e-01 8.012900000000000578e-02 -9.585699999999999776e-02 -4.646499999999999936e-02 -5.895800000000000346e-02 2.716999999999999971e-02 1.285530000000000006e-01 4.930099999999999760e-02 1.802499999999999936e-02 5.116899999999999921e-02 -7.010700000000000265e-02 4.852100000000000163e-02
-1.689160000000000106e-01 8.593299999999999550e-02 -1.377819999999999878e-01 -7.284599999999999409e-02 -7.154199999999999449e-02 4.817500000000000254e-02 1.589669999999999972e-01 8.086400000000000532e-02 6.548600000000000254e-02 8.054899999999999560e-02 -9.495900000000000174e-02 2.193099999999999911e-02
-2.017750000000000099e-01 9.143099999999999838e-02 -1.793079999999999952e-01 -9.882399999999999518e-02 -8.385700000000000098e-02 6.897000000000000353e-02 1.888769999999999893e-01 1.120460000000000067e-01 1.126640000000000003e-01 1.095340000000000064e-01 -1.194299999999999945e-01 -4.499000000000000395e-03
-2.603700000000000112e-02 -7.749999999999999944e-03 -3.543500000000000122e-02 1.404000000000000083e-03 2.589899999999999841e-02 1.475800000000000028e-02 3.630800000000000000e-02 8.633999999999999314e-03 5.228300000000000308e-02 -1.202199999999999970e-02 -2.636700000000000155e-02 -3.149199999999999916e-02
-4.368099999999999761e-02 -2.765300000000000050e-02 -3.098400000000000112e-02 -5.317000000000000198e-02 1.994299999999999892e-02 1.399000000000000070e-03 5.606099999999999972e-02 1.424800000000000025e-02 8.357299999999999451e-02 4.012000000000000288e-02 -7.981000000000000247e-03 -5.318200000000000011e-02
-6.092000000000000193e-02 -4.566200000000000120e-02 -2.707599999999999937e-02 -1.079549999999999954e-01 1.391900000000000082e-02 -1.235200000000000013e-02 7.558199999999999641e-02 2.007700000000000110e-02 1.149820000000000009e-01 9.271899999999999586e-02 1.070899999999999977e-02 -7.480399999999999550e-02
-7.764699999999999380e-02 -6.469600000000000350e-02 -2.263599999999999987e-02 -1.624440000000000051e-01 7.860000000000000667e-03 -2.607800000000000049e-02 9.485799999999999788e-02 2.596899999999999903e-02 1.460670000000000024e-01 1.446979999999999933e-01 2.923600000000000157e-02 -9.621399999999999397e-02
-9.491900000000000337e-02 -8.279799999999999660e-02 -1.858900000000000136e-02 -2.161959999999999993e-01 1.729999999999999984e-03 -4.001400000000000096e-02 1.137100000000000055e-01 3.197900000000000048e-02 1.766959999999999920e-01 1.967730000000000035e-01 4.773399999999999865e-02 -1.170859999999999956e-01
4.538699999999999679e-02 3.550000000000000204e-03 4.310000000000000137e-04 5.103699999999999903e-02 1.131199999999999914e-02 -9.256000000000000338e-03 -1.606700000000000142e-02 -3.638500000000000068e-02 -1.012200000000000079e-02 -8.049599999999999811e-02 2.164500000000000104e-02 1.885799999999999976e-02
5.168699999999999684e-02 7.127999999999999788e-03 -1.743199999999999958e-02 3.530799999999999911e-02 -3.105999999999999820e-03 3.144999999999999792e-03 -2.971800000000000136e-02 -3.168900000000000189e-02 5.131999999999999756e-02 -5.476999999999999924e-02 2.866399999999999851e-02 -3.825100000000000028e-02
5.539999999999999786e-02 9.766000000000000375e-03 -3.479700000000000154e-02 1.974700000000000066e-02 -1.732600000000000112e-02 1.541400000000000062e-02 -4.373200000000000004e-02 -2.717299999999999924e-02 1.131329999999999975e-01 -2.891900000000000026e-02 3.575400000000000106e-02 -9.492699999999999749e-02
5.868700000000000305e-02 1.225799999999999980e-02 -5.186899999999999844e-02 4.113999999999999602e-03 -3.148700000000000110e-02 2.761500000000000066e-02 -5.761299999999999755e-02 -2.257100000000000078e-02 1.745849999999999902e-01 -3.001999999999999894e-03 4.274000000000000021e-02 -1.512370000000000103e-01
6.202699999999999880e-02 1.487199999999999980e-02 -6.962999999999999745e-02 -1.142800000000000066e-02 -4.546599999999999947e-02 3.966999999999999693e-02 -7.128500000000000114e-02 -1.809699999999999850e-02 2.351630000000000109e-01 2.282199999999999854e-02 4.963900000000000257e-02 -2.066570000000000074e-01
3.000000000000000076e-06 -1.999999999999999909e-06 -1.999999999999999909e-06 0.000000000000000000e+00 -9.999999999999999547e-07 0.000000000000000000e+00 -9.999999999999999547e-07 9.999999999999999547e-07 0.000000000000000000e+00 9.999999999999999547e-07 0.000000000000000000e+00 9.999999999999999547e-07
-6.260000000000000373e-04 2.762799999999999978e-02 2.879599999999999868e-02 -3.310000000000000008e-03 -2.638899999999999926e-02 -4.916299999999999837e-02 2.360999999999999818e-03 1.809399999999999897e-02 9.818000000000000338e-03 1.657999999999999969e-03 -1.786799999999999847e-02 1.229700000000000064e-02
-1.335000000000000032e-03 5.462899999999999701e-02 5.687699999999999700e-02 -6.723999999999999942e-03 -5.377500000000000335e-02 -1.008980000000000016e-01 4.788999999999999854e-03 3.636699999999999655e-02 2.070699999999999971e-02 3.322999999999999999e-03 -3.615499999999999964e-02 2.460400000000000087e-02
-1.992999999999999980e-03 8.137500000000000289e-02 8.476300000000000501e-02 -1.004200000000000058e-02 -8.010100000000000553e-02 -1.504979999999999929e-01 7.139000000000000380e-03 5.415299999999999975e-02 3.107999999999999999e-02 4.962000000000000265e-03 -5.384499999999999703e-02 3.657500000000000334e-02
-2.671999999999999896e-03 1.079839999999999967e-01 1.123040000000000010e-01 -1.342199999999999990e-02 -1.070789999999999936e-01 -2.014519999999999922e-01 9.530000000000000276e-03 7.205200000000000493e-02 4.210099999999999953e-02 6.597999999999999698e-03 -7.176899999999999946e-02 4.850000000000000144e-02
-2.882200000000000040e-02 -2.654000000000000109e-03 -1.928099999999999953e-02 -6.250999999999999612e-03 -2.646000000000000088e-02 9.634000000000000202e-03 1.786300000000000041e-02 2.100600000000000037e-02 -1.511499999999999996e-02 1.732699999999999865e-02 8.290999999999999759e-03 2.481600000000000125e-02
-3.056499999999999842e-02 -2.614899999999999863e-02 -5.627499999999999863e-02 1.345000000000000058e-03 4.218000000000000395e-03 3.450899999999999801e-02 7.625999999999999966e-03 -1.557200000000000077e-02 4.280500000000000277e-02 2.120999999999999969e-02 3.716900000000000065e-02 -2.247899999999999898e-02
-3.187600000000000156e-02 -4.993399999999999922e-02 -9.364899999999999614e-02 9.320999999999999425e-03 3.592800000000000160e-02 5.966899999999999982e-02 -3.144999999999999792e-03 -5.317299999999999804e-02 1.030510000000000037e-01 2.536400000000000113e-02 6.669899999999999440e-02 -7.088300000000000156e-02
-3.308799999999999936e-02 -7.269000000000000461e-02 -1.290360000000000118e-01 1.702400000000000094e-02 6.646199999999999330e-02 8.407199999999999396e-02 -1.355499999999999934e-02 -8.960100000000000009e-02 1.608499999999999930e-01 2.922299999999999898e-02 9.532499999999999307e-02 -1.179319999999999952e-01
-3.404999999999999694e-02 -9.547600000000000531e-02 -1.642389999999999961e-01 2.490900000000000059e-02 9.748999999999999333e-02 1.084999999999999992e-01 -2.418400000000000064e-02 -1.263120000000000076e-01 2.193930000000000047e-01 3.316899999999999710e-02 1.240600000000000036e-01 -1.651370000000000060e-01
-4.234600000000000170e-02 -2.330499999999999933e-02 9.853999999999999912e-03 -4.252999999999999836e-02 4.884299999999999753e-02 -2.371900000000000050e-02 2.424600000000000019e-02 4.221799999999999858e-02 -3.413700000000000068e-02 6.063999999999999946e-02 -6.762300000000000255e-02 4.880600000000000216e-02
-8.868199999999999694e-02 -2.646300000000000041e-02 -5.584999999999999687e-03 -5.038200000000000317e-02 6.325100000000000167e-02 -3.454100000000000226e-02 5.246699999999999975e-02 1.888499999999999901e-02 -2.824499999999999927e-02 8.020499999999999852e-02 -5.460399999999999976e-02 6.630500000000000282e-02
-1.280439999999999912e-01 -3.050100000000000033e-02 -1.763699999999999990e-02 -5.782000000000000334e-02 7.777100000000000679e-02 -4.540099999999999691e-02 8.144700000000000550e-02 -5.105000000000000163e-03 -2.183200000000000071e-02 1.001159999999999967e-01 -4.141700000000000242e-02 8.424500000000000044e-02
-1.669380000000000031e-01 -3.480199999999999960e-02 -3.041200000000000153e-02 -6.496999999999999997e-02 9.196200000000000208e-02 -5.608699999999999797e-02 1.091570000000000040e-01 -2.856200000000000058e-02 -1.573899999999999952e-02 1.189869999999999955e-01 -2.831399999999999889e-02 1.015110000000000040e-01
-2.069320000000000048e-01 -3.844100000000000295e-02 -4.353900000000000131e-02 -7.176200000000000634e-02 1.061420000000000002e-01 -6.666300000000000003e-02 1.372680000000000011e-01 -5.242700000000000138e-02 -9.263000000000000400e-03 1.379630000000000023e-01 -1.510500000000000037e-02 1.190149999999999958e-01
1.782900000000000110e-02 -3.794100000000000250e-02 1.979300000000000156e-02 3.506000000000000002e-03 1.200299999999999978e-02 -4.312699999999999867e-02 1.668400000000000091e-02 -5.494399999999999978e-02 1.538699999999999964e-02 -3.821999999999999703e-02 8.111699999999999466e-02 7.858000000000000401e-03
3.038300000000000028e-02 -5.001699999999999896e-02 -1.143399999999999972e-02 5.284699999999999814e-02 1.876999999999999849e-02 -2.742199999999999846e-02 5.119999999999999768e-04 -3.735999999999999738e-02 3.878800000000000303e-02 -8.413700000000000345e-02 6.751699999999999369e-02 -2.737999999999999982e-03
4.367100000000000148e-02 -6.098300000000000248e-02 -4.077700000000000075e-02 1.035670000000000063e-01 2.612400000000000139e-02 -1.058199999999999939e-02 -1.563200000000000006e-02 -1.920499999999999985e-02 6.311400000000000343e-02 -1.318550000000000000e-01 5.309099999999999930e-02 -1.376699999999999972e-02
5.627200000000000257e-02 -7.121800000000000352e-02 -6.949800000000000422e-02 1.527030000000000054e-01 3.288399999999999657e-02 5.395999999999999755e-03 -3.144600000000000173e-02 -1.157999999999999958e-03 8.644899999999999807e-02 -1.775740000000000096e-01 3.887000000000000177e-02 -2.433000000000000093e-02
6.860399999999999832e-02 -8.269899999999999474e-02 -9.957900000000000085e-02 2.022400000000000031e-01 4.006300000000000139e-02 2.211899999999999977e-02 -4.700399999999999717e-02 1.716399999999999870e-02 1.102660000000000029e-01 -2.239659999999999984e-01 2.414200000000000026e-02 -3.514599999999999669e-02
3.285600000000000326e-02 7.668000000000000337e-03 -2.796600000000000127e-02 8.764399999999999968e-02 -2.910300000000000040e-02 4.421900000000000136e-02 -7.791499999999999815e-02 9.103999999999999246e-03 3.016599999999999837e-02 -4.239600000000000313e-02 1.258100000000000017e-02 -4.628299999999999775e-02
-3.755000000000000091e-03 2.488900000000000140e-02 -1.307999999999999961e-02 4.413199999999999762e-02 -2.043199999999999877e-02 1.951400000000000010e-02 -4.207799999999999735e-02 9.209000000000000172e-03 3.013899999999999912e-02 7.609999999999999577e-04 -1.274199999999999985e-02 -3.525400000000000061e-02
-3.931899999999999978e-02 4.138499999999999818e-02 1.069000000000000072e-03 3.420000000000000188e-04 -1.145799999999999944e-02 -5.446999999999999585e-03 -6.010999999999999850e-03 9.128999999999999962e-03 3.017500000000000043e-02 4.413700000000000262e-02 -3.831400000000000083e-02 -2.420100000000000029e-02
-7.518500000000000183e-02 5.789300000000000002e-02 1.515900000000000060e-02 -4.421200000000000130e-02 -2.050000000000000173e-03 -3.103900000000000062e-02 3.060900000000000079e-02 8.885000000000000536e-03 3.009999999999999828e-02 8.825299999999999812e-02 -6.452600000000000002e-02 -1.303499999999999971e-02
-1.106349999999999972e-01 7.423499999999999543e-02 2.926600000000000035e-02 -8.814299999999999913e-02 7.141999999999999911e-03 -5.624900000000000039e-02 6.680500000000000327e-02 8.626999999999999252e-03 2.995499999999999899e-02 1.317379999999999940e-01 -9.023899999999999977e-02 -1.861999999999999940e-03
3.999999999999999819e-06 9.999999999999999547e-07 3.000000000000000076e-06 0.000000000000000000e+00 0.000000000000000000e+00 0.000000000000000000e+00 -9.999999999999999547e-07 0.000000000000000000e+00 9.999999999999999547e-07 0.000000000000000000e+00 -9.999999999999999547e-07 -9.999999999999999547e-07
3.332100000000000339e-02 1.652299999999999949e-02 5.021000000000000289e-03 -6.949999999999999581e-03 -2.302099999999999980e-02 -8.666000000000000092e-03 -9.036000000000000629e-03 2.406900000000000012e-02 -5.588000000000000085e-03 -1.494799999999999948e-02 -1.768600000000000033e-02 9.254000000000000073e-03
6.599299999999999611e-02 3.340900000000000120e-02 1.007599999999999989e-02 -1.505300000000000041e-02 -4.684900000000000175e-02 -1.762400000000000078e-02 -1.844300000000000106e-02 4.891899999999999721e-02 -1.126199999999999944e-02 -3.054199999999999970e-02 -3.565800000000000219e-02 1.879199999999999968e-02
9.867800000000000182e-02 5.022399999999999781e-02 1.507999999999999965e-02 -2.302999999999999839e-02 -7.043599999999999861e-02 -2.649100000000000066e-02 -2.777800000000000061e-02 7.361099999999999588e-02 -1.689799999999999983e-02 -4.604899999999999965e-02 -5.354099999999999832e-02 2.828200000000000158e-02
1.311910000000000021e-01 6.688299999999999801e-02 2.005699999999999844e-02 -3.111500000000000030e-02 -9.388900000000000023e-02 -3.531000000000000111e-02 -3.704099999999999754e-02 9.815500000000000613e-02 -2.248999999999999957e-02 -6.147899999999999893e-02 -7.130599999999999439e-02 3.772799999999999765e-02
3.837999999999999832e-03 3.889000000000000096e-03 1.801699999999999829e-02 -3.631999999999999812e-03 1.245699999999999932e-02 1.399999999999999877e-04 1.021700000000000039e-02 -3.753999999999999698e-02 -1.850399999999999961e-02 -1.047400000000000067e-02 2.133399999999999880e-02 -4.199999999999999768e-05
1.124999999999999958e-02 -8.262999999999999512e-03 -9.175000000000000863e-03 1.894999999999999983e-03 3.162299999999999833e-02 3.946999999999999988e-03 5.197000000000000230e-03 -5.074399999999999744e-02 2.407700000000000118e-02 -1.795199999999999921e-02 2.659500000000000058e-02 -2.147800000000000056e-02
1.882100000000000092e-02 -2.008599999999999969e-02 -3.561700000000000282e-02 7.408999999999999787e-03 5.115000000000000102e-02 7.569000000000000207e-03 1.959999999999999937e-04 -6.401099999999999846e-02 6.780300000000000216e-02 -2.560300000000000076e-02 3.169799999999999701e-02 -4.311399999999999955e-02
2.554500000000000173e-02 -3.114600000000000007e-02 -6.038799999999999724e-02 1.289799999999999974e-02 7.137599999999999500e-02 1.050399999999999945e-02 -4.899999999999999842e-03 -7.753899999999999681e-02 1.132480000000000014e-01 -3.336399999999999783e-02 3.670600000000000251e-02 -6.472700000000000675e-02
3.268200000000000272e-02 -4.239400000000000113e-02 -8.581900000000000639e-02 1.829899999999999929e-02 9.107600000000000418e-02 1.361899999999999916e-02 -9.809999999999999276e-03 -9.080900000000000083e-02 1.579180000000000028e-01 -4.096600000000000241e-02 4.158799999999999997e-02 -8.607099999999999473e-02
-1.134399999999999992e-02 -3.795500000000000262e-02 5.664000000000000284e-02 -1.422799999999999933e-02 4.638699999999999768e-02 -2.695000000000000173e-02 1.297199999999999916e-02 -5.731100000000000083e-02 -6.650599999999999568e-02 1.182099999999999991e-02 4.891899999999999721e-02 3.693899999999999961e-02
-1.880499999999999880e-02 -2.794999999999999915e-02 5.710799999999999904e-02 2.434100000000000152e-02 4.073600000000000138e-02 -2.455399999999999944e-02 -1.224899999999999947e-02 -6.706099999999999561e-02 -6.718399999999999372e-02 3.516000000000000028e-03 5.603299999999999947e-02 3.501200000000000145e-02
-2.630299999999999999e-02 -1.780899999999999844e-02 5.736900000000000333e-02 6.403300000000000658e-02 3.470000000000000168e-02 -2.193200000000000011e-02 -3.799799999999999706e-02 -7.718600000000000461e-02 -6.781399999999999928e-02 -4.569000000000000145e-03 6.314000000000000168e-02 3.294699999999999712e-02
-3.048000000000000015e-02 -9.362999999999999795e-03 5.714600000000000235e-02 1.056620000000000059e-01 2.822399999999999909e-02 -1.905799999999999855e-02 -6.457899999999999752e-02 -8.783199999999999341e-02 -6.838700000000000334e-02 -1.257199999999999984e-02 7.011799999999999977e-02 3.071799999999999878e-02
-3.612200000000000133e-02 -2.820000000000000241e-04 5.690100000000000019e-02 1.463019999999999876e-01 2.173599999999999838e-02 -1.609500000000000167e-02 -9.054900000000000448e-02 -9.793200000000000516e-02 -6.880000000000000004e-02 -2.051199999999999898e-02 7.684799999999999964e-02 2.842000000000000082e-02
-1.828899999999999970e-02 -3.980700000000000210e-02 -2.127499999999999877e-02 -3.312699999999999673e-02 3.634600000000000330e-02 -1.905999999999999925e-03 -7.429999999999999973e-03 1.869999999999999917e-03 5.759000000000000230e-03 5.906800000000000245e-02 1.835999999999999958e-03 1.762400000000000078e-02
-3.658299999999999746e-02 -6.472100000000000075e-02 -4.347600000000000076e-02 -5.278299999999999659e-02 3.982299999999999729e-02 3.357999999999999874e-03 2.043499999999999830e-02 1.365500000000000047e-02 3.664400000000000296e-02 6.890200000000000491e-02 9.672000000000000042e-03 2.857999999999999863e-03
-5.484399999999999692e-02 -8.910200000000000065e-02 -6.544800000000000617e-02 -7.281899999999999484e-02 4.364300000000000124e-02 8.517999999999999530e-03 4.930899999999999866e-02 2.646099999999999841e-02 6.893699999999999828e-02 7.856499999999999595e-02 1.782600000000000157e-02 -1.225300000000000000e-02
-7.266899999999999749e-02 -1.128989999999999994e-01 -8.674700000000000466e-02 -9.227200000000000679e-02 4.700900000000000217e-02 1.342199999999999990e-02 7.734499999999999709e-02 3.902400000000000313e-02 1.002340000000000036e-01 8.784899999999999654e-02 2.554999999999999979e-02 -2.692500000000000102e-02
-9.028500000000000414e-02 -1.363709999999999922e-01 -1.081649999999999973e-01 -1.118060000000000026e-01 5.059899999999999815e-02 1.846300000000000024e-02 1.056460000000000038e-01 5.179199999999999776e-02 1.320379999999999887e-01 9.706099999999999450e-02 3.347699999999999981e-02 -4.184100000000000319e-02
-2.187700000000000061e-02 7.113000000000000399e-03 -1.874200000000000171e-02 1.820000000000000003e-03 -8.793000000000000468e-03 6.149999999999999868e-04 2.763699999999999837e-02 4.570000000000000277e-03 -4.379299999999999859e-02 -6.465000000000000260e-03 -3.106999999999999953e-03 6.230900000000000327e-02
-6.276099999999999735e-02 -1.259900000000000082e-02 -6.216000000000000171e-03 -2.871399999999999994e-02 6.439000000000000279e-03 -1.057400000000000007e-02 7.773199999999999554e-02 -3.259999999999999877e-03 -5.975300000000000056e-02 1.327700000000000061e-02 8.175999999999999240e-03 7.721400000000000485e-02
-1.031989999999999991e-01 -3.163300000000000139e-02 6.224000000000000365e-03 -5.959500000000000214e-02 2.208900000000000099e-02 -2.183999999999999830e-02 1.290300000000000058e-01 -1.105700000000000086e-02 -7.584200000000000663e-02 3.301300000000000068e-02 1.952999999999999875e-02 9.221000000000000030e-02
-1.431320000000000092e-01 -5.063000000000000139e-02 1.854099999999999845e-02 -9.055699999999999861e-02 3.796900000000000275e-02 -3.311900000000000260e-02 1.810549999999999937e-01 -1.888799999999999854e-02 -9.196799999999999420e-02 5.294800000000000201e-02 3.103900000000000062e-02 1.071089999999999959e-01
-1.831019999999999870e-01 -6.958599999999999508e-02 3.074199999999999849e-02 -1.210640000000000049e-01 5.366499999999999743e-02 -4.420199999999999824e-02 2.321789999999999965e-01 -2.662600000000000036e-02 -1.076619999999999938e-01 7.240599999999999814e-02 4.230099999999999832e-02 1.216399999999999981e-01
