6.387911643999999889e+00 0.000000000000000000e+00 0.000000000000000000e+00 0.000000000000000000e+00 6.387911643999999889e+00 0.000000000000000000e+00 0.000000000000000000e+00 0.000000000000000000e+00 6.387911643999999889e+00
6.387911643999999889e+00 0.000000000000000000e+00 0.000000000000000000e+00 0.000000000000000000e+00 6.387911643999999889e+00 0.000000000000000000e+00 0.000000000000000000e+00 0.000000000000000000e+00 6.387911643999999889e+00
6.387911643999999889e+00 0.000000000000000000e+00 0.000000000000000000e+00 0.000000000000000000e+00 6.387911643999999889e+00 0.000000000000000000e+00 0.000000000000000000e+00 0.000000000000000000e+00 6.387911643999999889e+00
6.387911643999999889e+00 0.000000000000000000e+00 0.000000000000000000e+00 0.000000000000000000e+00 6.387911643999999889e+00 0.000000000000000000e+00 0.000000000000000000e+00 0.000000000000000000e+00 6.387911643999999889e+00
6.387911643999999889e+00 0.000000000000000000e+00 0.000000000000000000e+00 0.000000000000000000e+00 6.387911643999999889e+00 0.000000000000000000e+00 0.000000000000000000e+00 0.000000000000000000e+00 6.387911643999999889e+00
6.404592061999999864e+00 0.000000000000000000e+00 0.000000000000000000e+00 9.200200999999999518e-02 6.452485013000000436e+00 0.000000000000000000e+00 -1.496434819999999943e-01 -2.352735099999999843e-02 6.530621195000000156e+00
6.404592061999999864e+00 0.000000000000000000e+00 0.000000000000000000e+00 9.200200999999999518e-02 6.452485013000000436e+00 0.000000000000000000e+00 -1.496434819999999943e-01 -2.352735099999999843e-02 6.530621195000000156e+00
6.404592061999999864e+00 0.000000000000000000e+00 0.000000000000000000e+00 9.200200999999999518e-02 6.452485013000000436e+00 0.000000000000000000e+00 -1.496434819999999943e-01 -2.352735099999999843e-02 6.530621195000000156e+00
6.404592061999999864e+00 0.000000000000000000e+00 0.000000000000000000e+00 9.200200999999999518e-02 6.452485013000000436e+00 0.000000000000000000e+00 -1.496434819999999943e-01 -2.352735099999999843e-02 6.530621195000000156e+00
6.404592061999999864e+00 0.000000000000000000e+00 0.000000000000000000e+00 9.200200999999999518e-02 6.452485013000000436e+00 0.000000000000000000e+00 -1.496434819999999943e-01 -2.352735099999999843e-02 6.530621195000000156e+00
6.350897778000000216e+00 0.000000000000000000e+00 0.000000000000000000e+00 1.427321490000000026e-01 6.379887217000000277e+00 0.000000000000000000e+00 6.402895699999999746e-02 -1.381122760000000060e-01 6.573738828999999839e+00
6.350897778000000216e+00 0.000000000000000000e+00 0.000000000000000000e+00 1.427321490000000026e-01 6.379887217000000277e+00 0.000000000000000000e+00 6.402895699999999746e-02 -1.381122760000000060e-01 6.573738828999999839e+00
6.350897778000000216e+00 0.000000000000000000e+00 0.000000000000000000e+00 1.427321490000000026e-01 6.379887217000000277e+00 0.000000000000000000e+00 6.402895699999999746e-02 -1.381122760000000060e-01 6.573738828999999839e+00
6.350897778000000216e+00 0.000000000000000000e+00 0.000000000000000000e+00 1.427321490000000026e-01 6.379887217000000277e+00 0.000000000000000000e+00 6.402895699999999746e-02 -1.381122760000000060e-01 6.573738828999999839e+00
6.401747417000000162e+00 0.000000000000000000e+00 0.000000000000000000e+00 1.031413659999999982e-01 6.335918969999999817e+00 0.000000000000000000e+00 6.417209699999999739e-02 1.082455150000000005e-01 6.539815694999999707e+00
6.401747417000000162e+00 0.000000000000000000e+00 0.000000000000000000e+00 1.031413659999999982e-01 6.335918969999999817e+00 0.000000000000000000e+00 6.417209699999999739e-02 1.082455150000000005e-01 6.539815694999999707e+00
6.401747417000000162e+00 0.000000000000000000e+00 0.000000000000000000e+00 1.031413659999999982e-01 6.335918969999999817e+00 0.000000000000000000e+00 6.417209699999999739e-02 1.082455150000000005e-01 6.539815694999999707e+00
6.401747417000000162e+00 0.000000000000000000e+00 0.000000000000000000e+00 1.031413659999999982e-01 6.335918969999999817e+00 0.000000000000000000e+00 6.417209699999999739e-02 1.082455150000000005e-01 6.539815694999999707e+00
6.401747417000000162e+00 0.000000000000000000e+00 0.000000000000000000e+00 1.031413659999999982e-01 6.335918969999999817e+00 0.000000000000000000e+00 6.417209699999999739e-02 1.082455150000000005e-01 6.539815694999999707e+00
6.319880181000000263e+00 0.000000000000000000e+00 0.000000000000000000e+00 -5.086442900000000267e-02 6.336405152000000207e+00 0.000000000000000000e+00 3.803782299999999839e-02 -1.192840049999999985e-01 6.444388512999999818e+00
6.319880181000000263e+00 0.000000000000000000e+00 0.000000000000000000e+00 -5.086442900000000267e-02 6.336405152000000207e+00 0.000000000000000000e+00 3.803782299999999839e-02 -1.192840049999999985e-01 6.444388512999999818e+00
6.319880181000000263e+00 0.000000000000000000e+00 0.000000000000000000e+00 -5.086442900000000267e-02 6.336405152000000207e+00 0.000000000000000000e+00 3.803782299999999839e-02 -1.192840049999999985e-01 6.444388512999999818e+00
6.319880181000000263e+00 0.000000000000000000e+00 0.000000000000000000e+00 -5.086442900000000267e-02 6.336405152000000207e+00 0.000000000000000000e+00 3.803782299999999839e-02 -1.192840049999999985e-01 6.444388512999999818e+00
6.319880181000000263e+00 0.000000000000000000e+00 0.000000000000000000e+00 -5.086442900000000267e-02 6.336405152000000207e+00 0.000000000000000000e+00 3.803782299999999839e-02 -1.192840049999999985e-01 6.444388512999999818e+00
6.585475921999999649e+00 0.000000000000000000e+00 0.000000000000000000e+00 0.000000000000000000e+00 6.585475921999999649e+00 0.000000000000000000e+00 0.000000000000000000e+00 0.000000000000000000e+00 6.585475921999999649e+00
6.585475921999999649e+00 0.000000000000000000e+00 0.000000000000000000e+00 0.000000000000000000e+00 6.585475921999999649e+00 0.000000000000000000e+00 0.000000000000000000e+00 0.000000000000000000e+00 6.585475921999999649e+00
6.585475921999999649e+00 0.000000000000000000e+00 0.000000000000000000e+00 0.000000000000000000e+00 6.585475921999999649e+00 0.000000000000000000e+00 0.000000000000000000e+00 0.000000000000000000e+00 6.585475921999999649e+00
6.585475921999999649e+00 0.000000000000000000e+00 0.000000000000000000e+00 0.000000000000000000e+00 6.585475921999999649e+00 0.000000000000000000e+00 0.000000000000000000e+00 0.000000000000000000e+00 6.585475921999999649e+00
6.585475921999999649e+00 0.000000000000000000e+00 0.000000000000000000e+00 0.000000000000000000e+00 6.585475921999999649e+00 0.000000000000000000e+00 0.000000000000000000e+00 0.000000000000000000e+00 6.585475921999999649e+00
6.448891291999999886e+00 0.000000000000000000e+00 0.000000000000000000e+00 -6.838712000000000263e-03 6.638722171999999588e+00 0.000000000000000000e+00 1.583788839999999976e-01 -1.677044299999999877e-01 6.756789902000000403e+00
6.448891291999999886e+00 0.000000000000000000e+00 0.000000000000000000e+00 -6.838712000000000263e-03 6.638722171999999588e+00 0.000000000000000000e+00 1.583788839999999976e-01 -1.677044299999999877e-01 6.756789902000000403e+00
6.448891291999999886e+00 0.000000000000000000e+00 0.000000000000000000e+00 -6.838712000000000263e-03 6.638722171999999588e+00 0.000000000000000000e+00 1.583788839999999976e-01 -1.677044299999999877e-01 6.756789902000000403e+00
6.448891291999999886e+00 0.000000000000000000e+00 0.000000000000000000e+00 -6.838712000000000263e-03 6.638722171999999588e+00 0.000000000000000000e+00 1.583788839999999976e-01 -1.677044299999999877e-01 6.756789902000000403e+00
6.448891291999999886e+00 0.000000000000000000e+00 0.000000000000000000e+00 -6.838712000000000263e-03 6.638722171999999588e+00 0.000000000000000000e+00 1.583788839999999976e-01 -1.677044299999999877e-01 6.756789902000000403e+00
6.575893134000000195e+00 0.000000000000000000e+00 0.000000000000000000e+00 1.225414989999999982e-01 6.723895942999999598e+00 0.000000000000000000e+00 1.746659090000000081e-01 -1.731289229999999901e-01 6.431489591000000061e+00
6.575893134000000195e+00 0.000000000000000000e+00 0.000000000000000000e+00 1.225414989999999982e-01 6.723895942999999598e+00 0.000000000000000000e+00 1.746659090000000081e-01 -1.731289229999999901e-01 6.431489591000000061e+00
6.575893134000000195e+00 0.000000000000000000e+00 0.000000000000000000e+00 1.225414989999999982e-01 6.723895942999999598e+00 0.000000000000000000e+00 1.746659090000000081e-01 -1.731289229999999901e-01 6.431489591000000061e+00
6.575893134000000195e+00 0.000000000000000000e+00 0.000000000000000000e+00 1.225414989999999982e-01 6.723895942999999598e+00 0.000000000000000000e+00 1.746659090000000081e-01 -1.731289229999999901e-01 6.431489591000000061e+00
6.575893134000000195e+00 0.000000000000000000e+00 0.000000000000000000e+00 1.225414989999999982e-01 6.723895942999999598e+00 0.000000000000000000e+00 1.746659090000000081e-01 -1.731289229999999901e-01 6.431489591000000061e+00
6.768757660000000342e+00 0.000000000000000000e+00 0.000000000000000000e+00 2.262902699999999948e-02 6.446553815999999770e+00 0.000000000000000000e+00 3.495647799999999916e-02 -1.058118190000000014e-01 6.646919300999999614e+00
6.768757660000000342e+00 0.000000000000000000e+00 0.000000000000000000e+00 2.262902699999999948e-02 6.446553815999999770e+00 0.000000000000000000e+00 3.495647799999999916e-02 -1.058118190000000014e-01 6.646919300999999614e+00
6.768757660000000342e+00 0.000000000000000000e+00 0.000000000000000000e+00 2.262902699999999948e-02 6.446553815999999770e+00 0.000000000000000000e+00 3.495647799999999916e-02 -1.058118190000000014e-01 6.646919300999999614e+00
6.768757660000000342e+00 0.000000000000000000e+00 0.000000000000000000e+00 2.262902699999999948e-02 6.446553815999999770e+00 0.000000000000000000e+00 3.495647799999999916e-02 -1.058118190000000014e-01 6.646919300999999614e+00
6.768757660000000342e+00 0.000000000000000000e+00 0.000000000000000000e+00 2.262902699999999948e-02 6.446553815999999770e+00 0.000000000000000000e+00 3.495647799999999916e-02 -1.058118190000000014e-01 6.646919300999999614e+00
6.445680958999999710e+00 0.000000000000000000e+00 0.000000000000000000e+00 -7.061022100000000079e-02 6.706513417000000032e+00 0.000000000000000000e+00 1.168056829999999935e-01 8.648421100000000528e-02 6.635472417999999983e+00
6.445680958999999710e+00 0.000000000000000000e+00 0.000000000000000000e+00 -7.061022100000000079e-02 6.706513417000000032e+00 0.000000000000000000e+00 1.168056829999999935e-01 8.648421100000000528e-02 6.635472417999999983e+00
6.445680958999999710e+00 0.000000000000000000e+00 0.000000000000000000e+00 -7.061022100000000079e-02 6.706513417000000032e+00 0.000000000000000000e+00 1.168056829999999935e-01 8.648421100000000528e-02 6.635472417999999983e+00
6.445680958999999710e+00 0.000000000000000000e+00 0.000000000000000000e+00 -7.061022100000000079e-02 6.706513417000000032e+00 0.000000000000000000e+00 1.168056829999999935e-01 8.648421100000000528e-02 6.635472417999999983e+00
6.445680958999999710e+00 0.000000000000000000e+00 0.000000000000000000e+00 -7.061022100000000079e-02 6.706513417000000032e+00 0.000000000000000000e+00 1.168056829999999935e-01 8.648421100000000528e-02 6.635472417999999983e+00
6.783040199000000214e+00 0.000000000000000000e+00 0.000000000000000000e+00 0.000000000000000000e+00 6.783040199000000214e+00 0.000000000000000000e+00 0.000000000000000000e+00 0.000000000000000000e+00 6.783040199000000214e+00
6.783040199000000214e+00 0.000000000000000000e+00 0.000000000000000000e+00 0.000000000000000000e+00 6.783040199000000214e+00 0.000000000000000000e+00 0.000000000000000000e+00 0.000000000000000000e+00 6.783040199000000214e+00
6.783040199000000214e+00 0.000000000000000000e+00 0.000000000000000000e+00 0.000000000000000000e+00 6.783040199000000214e+00 0.000000000000000000e+00 0.000000000000000000e+00 0.000000000000000000e+00 6.783040199000000214e+00
6.783040199000000214e+00 0.000000000000000000e+00 0.000000000000000000e+00 0.000000000000000000e+00 6.783040199000000214e+00 0.000000000000000000e+00 0.000000000000000000e+00 0.000000000000000000e+00 6.783040199000000214e+00
6.783040199000000214e+00 0.000000000000000000e+00 0.000000000000000000e+00 0.000000000000000000e+00 6.783040199000000214e+00 0.000000000000000000e+00 0.000000000000000000e+00 0.000000000000000000e+00 6.783040199000000214e+00
6.727030766000000384e+00 0.000000000000000000e+00 0.000000000000000000e+00 1.328560400000000086e-01 6.678037173999999965e+00 0.000000000000000000e+00 -1.798749829999999883e-01 1.856563850000000071e-01 6.621148145000000262e+00
6.727030766000000384e+00 0.000000000000000000e+00 0.000000000000000000e+00 1.328560400000000086e-01 6.678037173999999965e+00 0.000000000000000000e+00 -1.798749829999999883e-01 1.856563850000000071e-01 6.621148145000000262e+00
6.727030766000000384e+00 0.000000000000000000e+00 0.000000000000000000e+00 1.328560400000000086e-01 6.678037173999999965e+00 0.000000000000000000e+00 -1.798749829999999883e-01 1.856563850000000071e-01 6.621148145000000262e+00
6.727030766000000384e+00 0.000000000000000000e+00 0.000000000000000000e+00 1.328560400000000086e-01 6.678037173999999965e+00 0.000000000000000000e+00 -1.798749829999999883e-01 1.856563850000000071e-01 6.621148145000000262e+00
6.727030766000000384e+00 0.000000000000000000e+00 0.000000000000000000e+00 1.328560400000000086e-01 6.678037173999999965e+00 0.000000000000000000e+00 -1.798749829999999883e-01 1.856563850000000071e-01 6.621148145000000262e+00
6.923109366000000264e+00 0.000000000000000000e+00 0.000000000000000000e+00 6.774216999999999912e-03 6.840168593999999658e+00 0.000000000000000000e+00 -9.298660699999999890e-02 -1.352363380000000115e-01 6.863651941999999728e+00
6.923109366000000264e+00 0.000000000000000000e+00 0.000000000000000000e+00 6.774216999999999912e-03 6.840168593999999658e+00 0.000000000000000000e+00 -9.298660699999999890e-02 -1.352363380000000115e-01 6.863651941999999728e+00
6.923109366000000264e+00 0.000000000000000000e+00 0.000000000000000000e+00 6.774216999999999912e-03 6.840168593999999658e+00 0.000000000000000000e+00 -9.298660699999999890e-02 -1.352363380000000115e-01 6.863651941999999728e+00
6.923109366000000264e+00 0.000000000000000000e+00 0.000000000000000000e+00 6.774216999999999912e-03 6.840168593999999658e+00 0.000000000000000000e+00 -9.298660699999999890e-02 -1.352363380000000115e-01 6.863651941999999728e+00
6.923109366000000264e+00 0.000000000000000000e+00 0.000000000000000000e+00 6.774216999999999912e-03 6.840168593999999658e+00 0.000000000000000000e+00 -9.298660699999999890e-02 -1.352363380000000115e-01 6.863651941999999728e+00
6.801271036000000159e+00 0.000000000000000000e+00 0.000000000000000000e+00 -1.422752210000000073e-01 6.580332692999999900e+00 0.000000000000000000e+00 1.148473940000000054e-01 1.709116579999999941e-01 6.974924618000000187e+00
6.801271036000000159e+00 0.000000000000000000e+00 0.000000000000000000e+00 -1.422752210000000073e-01 6.580332692999999900e+00 0.000000000000000000e+00 1.148473940000000054e-01 1.709116579999999941e-01 6.974924618000000187e+00
6.801271036000000159e+00 0.000000000000000000e+00 0.000000000000000000e+00 -1.422752210000000073e-01 6.580332692999999900e+00 0.000000000000000000e+00 1.148473940000000054e-01 1.709116579999999941e-01 6.974924618000000187e+00
6.801271036000000159e+00 0.000000000000000000e+00 0.000000000000000000e+00 -1.422752210000000073e-01 6.580332692999999900e+00 0.000000000000000000e+00 1.148473940000000054e-01 1.709116579999999941e-01 6.974924618000000187e+00
6.801271036000000159e+00 0.000000000000000000e+00 0.000000000000000000e+00 -1.422752210000000073e-01 6.580332692999999900e+00 0.000000000000000000e+00 1.148473940000000054e-01 1.709116579999999941e-01 6.974924618000000187e+00
6.669688143000000125e+00 0.000000000000000000e+00 0.000000000000000000e+00 3.409344300000000105e-02 6.865956599999999632e+00 0.000000000000000000e+00 1.986052000000000095e-01 -4.298107500000000053e-02 6.778452403000000182e+00
6.669688143000000125e+00 0.000000000000000000e+00 0.000000000000000000e+00 3.409344300000000105e-02 6.865956599999999632e+00 0.000000000000000000e+00 1.986052000000000095e-01 -4.298107500000000053e-02 6.778452403000000182e+00
6.669688143000000125e+00 0.000000000000000000e+00 0.000000000000000000e+00 3.409344300000000105e-02 6.865956599999999632e+00 0.000000000000000000e+00 1.986052000000000095e-01 -4.298107500000000053e-02 6.778452403000000182e+00
6.669688143000000125e+00 0.000000000000000000e+00 0.000000000000000000e+00 3.409344300000000105e-02 6.865956599999999632e+00 0.000000000000000000e+00 1.986052000000000095e-01 -4.298107500000000053e-02 6.778452403000000182e+00
6.669688143000000125e+00 0.000000000000000000e+00 0.000000000000000000e+00 3.409344300000000105e-02 6.865956599999999632e+00 0.000000000000000000e+00 1.986052000000000095e-01 -4.298107500000000053e-02 6.778452403000000182e+00
