7.984900000000000331e-01 7.984900000000000331e-01 7.984900000000000331e-01 5.589419999999999611e+00 2.395469999999999988e+00 3.992440000000000211e+00 2.395469999999999988e+00 3.992440000000000211e+00 5.589419999999999611e+00 3.992440000000000211e+00 5.589419999999999611e+00 2.395469999999999988e+00 2.395469999999999988e+00 5.589419999999999611e+00 3.992440000000000211e+00 5.589419999999999611e+00 3.992440000000000211e+00 2.395469999999999988e+00 3.992440000000000211e+00 2.395469999999999988e+00 5.589419999999999611e+00 7.984900000000000331e-01 3.992440000000000211e+00 3.992440000000000211e+00 5.589419999999999611e+00 5.589419999999999611e+00 7.984900000000000331e-01 2.395469999999999988e+00 7.984900000000000331e-01 2.395469999999999988e+00 2.395469999999999988e+00 2.395469999999999988e+00 7.984900000000000331e-01 5.589419999999999611e+00 7.984900000000000331e-01 5.589419999999999611e+00 3.992440000000000211e+00 7.984900000000000331e-01 3.992440000000000211e+00 7.984900000000000331e-01 5.589419999999999611e+00 5.589419999999999611e+00 7.984900000000000331e-01 2.395469999999999988e+00 2.395469999999999988e+00 3.992440000000000211e+00 3.992440000000000211e+00 7.984900000000000331e-01 0.000000000000000000e+00 0.000000000000000000e+00 3.193960000000000132e+00 0.000000000000000000e+00 3.193960000000000132e+00 0.000000000000000000e+00 3.193960000000000132e+00 3.193960000000000132e+00 3.193960000000000132e+00 3.193960000000000132e+00 0.000000000000000000e+00 0.000000000000000000e+00 4.790930000000000355e+00 1.596980000000000066e+00 1.596980000000000066e+00 1.596980000000000066e+00 1.596980000000000066e+00 4.790930000000000355e+00 1.596980000000000066e+00 4.790930000000000355e+00 1.596980000000000066e+00 4.790930000000000355e+00 4.790930000000000355e+00 4.790930000000000355e+00
7.943400000000000460e-01 7.962900000000000533e-01 8.000300000000000189e-01 5.589739999999999931e+00 2.399709999999999788e+00 3.994009999999999838e+00 2.392980000000000107e+00 3.988449999999999829e+00 5.589059999999999917e+00 3.998650000000000038e+00 5.578960000000000363e+00 2.389790000000000081e+00 2.397720000000000073e+00 5.591400000000000148e+00 3.997269999999999879e+00 5.588890000000000136e+00 3.994110000000000049e+00 2.397749999999999826e+00 3.994470000000000187e+00 2.387649999999999828e+00 5.590200000000000280e+00 8.037499999999999645e-01 3.987060000000000048e+00 3.997250000000000192e+00 5.583050000000000068e+00 5.590259999999999785e+00 8.003299999999999859e-01 2.398429999999999840e+00 7.924600000000000533e-01 2.387939999999999952e+00 2.398359999999999825e+00 2.398109999999999964e+00 8.014700000000000157e-01 5.584730000000000416e+00 8.058100000000000263e-01 5.588560000000000194e+00 3.992570000000000174e+00 7.990899999999999670e-01 3.989650000000000141e+00 8.000300000000000189e-01 5.590609999999999857e+00 5.584489999999999732e+00 8.003000000000000114e-01 2.389060000000000183e+00 2.392689999999999984e+00 3.991039999999999921e+00 3.990619999999999834e+00 7.941700000000000426e-01 7.699999999999999597e-04 6.387839999999999741e+00 3.197950000000000070e+00 2.700000000000000035e-04 3.197400000000000020e+00 1.399999999999999877e-04 3.188530000000000086e+00 3.200779999999999959e+00 3.195120000000000182e+00 3.192460000000000075e+00 6.387769999999999726e+00 1.000000000000000082e-05 4.786010000000000097e+00 1.602980000000000071e+00 1.596379999999999910e+00 1.595020000000000104e+00 1.594379999999999908e+00 4.793829999999999814e+00 1.603699999999999903e+00 4.797939999999999650e+00 1.598570000000000046e+00 4.791649999999999743e+00 4.792500000000000426e+00 4.789760000000000240e+00
7.901899999999999480e-01 7.940899999999999626e-01 8.015499999999999847e-01 5.590060000000000251e+00 2.403939999999999966e+00 3.995559999999999778e+00 2.390499999999999847e+00 3.984469999999999956e+00 5.588709999999999845e+00 4.004830000000000112e+00 5.568520000000000358e+00 2.384149999999999991e+00 2.399970000000000159e+00 5.593379999999999797e+00 4.002069999999999794e+00 5.588390000000000413e+00 3.995750000000000135e+00 2.400030000000000108e+00 3.996469999999999967e+00 2.379869999999999930e+00 5.590980000000000061e+00 8.089899999999999869e-01 3.981669999999999821e+00 4.002040000000000042e+00 5.576710000000000278e+00 5.591090000000000337e+00 8.021399999999999642e-01 2.401400000000000201e+00 7.864200000000000079e-01 2.380430000000000046e+00 2.401240000000000041e+00 2.400739999999999874e+00 8.044400000000000439e-01 5.580059999999999576e+00 8.130899999999999794e-01 5.587710000000000399e+00 3.992690000000000072e+00 7.996900000000000119e-01 3.986850000000000005e+00 8.015400000000000302e-01 5.591800000000000104e+00 5.579589999999999606e+00 8.020899999999999697e-01 2.382670000000000066e+00 2.389940000000000175e+00 3.989640000000000075e+00 3.988789999999999836e+00 7.898600000000000065e-01 1.529999999999999893e-03 6.387769999999999726e+00 3.201929999999999943e+00 5.400000000000000069e-04 3.200839999999999907e+00 2.900000000000000017e-04 3.183100000000000041e+00 3.207599999999999785e+00 3.196289999999999853e+00 3.190960000000000019e+00 6.387629999999999697e+00 2.000000000000000164e-05 4.781089999999999840e+00 1.608970000000000011e+00 1.595779999999999976e+00 1.593059999999999921e+00 1.591790000000000038e+00 4.796730000000000160e+00 1.610409999999999897e+00 4.804940000000000211e+00 1.600149999999999961e+00 4.792360000000000397e+00 4.794069999999999609e+00 4.788599999999999746e+00
7.860599999999999810e-01 7.918899999999999828e-01 8.030500000000000416e-01 5.590370000000000061e+00 2.408160000000000078e+00 3.997090000000000032e+00 2.388049999999999784e+00 3.980490000000000084e+00 5.588370000000000282e+00 4.010939999999999728e+00 5.558159999999999989e+00 2.378579999999999917e+00 2.402239999999999931e+00 5.595349999999999824e+00 4.006840000000000401e+00 5.587930000000000064e+00 3.997360000000000024e+00 2.402309999999999945e+00 3.998429999999999929e+00 2.372129999999999850e+00 5.591759999999999842e+00 8.142099999999999893e-01 3.976309999999999789e+00 4.006770000000000387e+00 5.570420000000000371e+00 5.591929999999999623e+00 8.039100000000000135e-01 2.404380000000000184e+00 7.803900000000000281e-01 2.372949999999999893e+00 2.404090000000000060e+00 2.403350000000000097e+00 8.074099999999999611e-01 5.575440000000000396e+00 8.203099999999999836e-01 5.586879999999999846e+00 3.992809999999999970e+00 8.002700000000000369e-01 3.984020000000000117e+00 8.030100000000000016e-01 5.593020000000000103e+00 5.574729999999999741e+00 8.038600000000000190e-01 2.376320000000000210e+00 2.387210000000000054e+00 3.988249999999999851e+00 3.986959999999999837e+00 7.855400000000000160e-01 2.289999999999999935e-03 6.387690000000000090e+00 3.205909999999999815e+00 8.000000000000000383e-04 3.204270000000000174e+00 4.400000000000000157e-04 3.177690000000000126e+00 3.214389999999999858e+00 3.197459999999999969e+00 3.189470000000000027e+00 6.387489999999999668e+00 2.000000000000000164e-05 4.776189999999999714e+00 1.614940000000000042e+00 1.595190000000000108e+00 1.591110000000000024e+00 1.589199999999999946e+00 4.799619999999999997e+00 1.617099999999999982e+00 4.811919999999999753e+00 1.601730000000000098e+00 4.793070000000000164e+00 4.795639999999999681e+00 4.787440000000000140e+00
7.819500000000000339e-01 7.896900000000000031e-01 8.045200000000000129e-01 5.590679999999999872e+00 2.412370000000000125e+00 3.998590000000000089e+00 2.385639999999999983e+00 3.976510000000000211e+00 5.588049999999999962e+00 4.016960000000000086e+00 5.547880000000000145e+00 2.373110000000000053e+00 2.404529999999999834e+00 5.597319999999999851e+00 4.011549999999999727e+00 5.587539999999999729e+00 3.998930000000000096e+00 2.404589999999999783e+00 4.000320000000000320e+00 2.364479999999999915e+00 5.592539999999999623e+00 8.194099999999999717e-01 3.970950000000000202e+00 4.011440000000000339e+00 5.564210000000000100e+00 5.592780000000000307e+00 8.056100000000000483e-01 2.407360000000000166e+00 7.743499999999999828e-01 2.365520000000000067e+00 2.406899999999999817e+00 2.405940000000000190e+00 8.103500000000000147e-01 5.570890000000000342e+00 8.274399999999999533e-01 5.586070000000000313e+00 3.992919999999999803e+00 8.008399999999999963e-01 3.981160000000000032e+00 8.044200000000000239e-01 5.594260000000000232e+00 5.569939999999999891e+00 8.055999999999999828e-01 2.370029999999999859e+00 2.384529999999999816e+00 3.986889999999999823e+00 3.985129999999999839e+00 7.812099999999999600e-01 3.050000000000000194e-03 6.387629999999999697e+00 3.209880000000000067e+00 1.069999999999999988e-03 3.207710000000000061e+00 6.099999999999999737e-04 3.172299999999999898e+00 3.221140000000000114e+00 3.198640000000000150e+00 3.187969999999999970e+00 6.387360000000000149e+00 2.000000000000000164e-05 4.771300000000000097e+00 1.620900000000000007e+00 1.594610000000000083e+00 1.589169999999999972e+00 1.586619999999999919e+00 4.802500000000000213e+00 1.623750000000000027e+00 4.818870000000000431e+00 1.603310000000000013e+00 4.793779999999999930e+00 4.797209999999999752e+00 4.786290000000000155e+00
8.005400000000000293e-01 8.007600000000000273e-01 8.212599999999999900e-01 5.541360000000000063e+00 2.404959999999999987e+00 4.090629999999999988e+00 2.326729999999999965e+00 4.008320000000000327e+00 5.719260000000000232e+00 4.027470000000000105e+00 5.636680000000000135e+00 2.448599999999999888e+00 2.388739999999999863e+00 5.631039999999999601e+00 4.081640000000000157e+00 5.612669999999999604e+00 4.026329999999999742e+00 2.455259999999999998e+00 3.903610000000000024e+00 2.402940000000000076e+00 5.714719999999999800e+00 7.574300000000000477e-01 4.013119999999999798e+00 4.080339999999999634e+00 5.671369999999999578e+00 5.647350000000000314e+00 8.129999999999999449e-01 2.357139999999999791e+00 7.995200000000000085e-01 2.450190000000000090e+00 2.417450000000000099e+00 2.416780000000000150e+00 8.165599999999999525e-01 5.480570000000000164e+00 7.812200000000000255e-01 5.706509999999999749e+00 3.923160000000000203e+00 7.854799999999999560e-01 4.075580000000000425e+00 7.519000000000000128e-01 5.633829999999999671e+00 5.712519999999999598e+00 7.791400000000000547e-01 2.410779999999999923e+00 2.448440000000000172e+00 4.042099999999999582e+00 4.031649999999999956e+00 8.140100000000000113e-01 6.329579999999999984e+00 -1.174000000000000044e-02 3.266119999999999912e+00 -9.977999999999999370e-02 3.199990000000000112e+00 6.528410000000000046e+00 3.176280000000000214e+00 3.212169999999999970e+00 3.264429999999999943e+00 3.293950000000000156e+00 6.446279999999999788e+00 3.490000000000000047e-03 4.790949999999999598e+00 1.603429999999999911e+00 1.639469999999999983e+00 1.512610000000000010e+00 1.601849999999999996e+00 4.903730000000000366e+00 1.627629999999999910e+00 4.833400000000000141e+00 1.633119999999999905e+00 4.754470000000000418e+00 4.817890000000000228e+00 4.902800000000000047e+00
7.974299999999999722e-01 7.993000000000000105e-01 8.211600000000000010e-01 5.540269999999999584e+00 2.409609999999999808e+00 4.096300000000000274e+00 2.328730000000000189e+00 4.008449999999999847e+00 5.725430000000000241e+00 4.029580000000000162e+00 5.637749999999999595e+00 2.453819999999999890e+00 2.382369999999999877e+00 5.628910000000000302e+00 4.080820000000000114e+00 5.611580000000000013e+00 4.026169999999999582e+00 2.457110000000000127e+00 3.911830000000000140e+00 2.401209999999999845e+00 5.716389999999999638e+00 7.509599999999999609e-01 4.017850000000000144e+00 4.076749999999999652e+00 5.678149999999999586e+00 5.644739999999999647e+00 8.162800000000000056e-01 2.357470000000000176e+00 8.053299999999999903e-01 2.447569999999999801e+00 2.415449999999999875e+00 2.411630000000000162e+00 8.065799999999999637e-01 5.484910000000000174e+00 7.775100000000000344e-01 5.708599999999999675e+00 3.925769999999999982e+00 7.934700000000000086e-01 4.077829999999999622e+00 7.542400000000000215e-01 5.633289999999999687e+00 5.715370000000000061e+00 7.797100000000000142e-01 2.412310000000000176e+00 2.445640000000000036e+00 4.038230000000000430e+00 4.026980000000000004e+00 8.104099999999999637e-01 -7.148000000000000187e-02 -7.029999999999999791e-03 3.269709999999999894e+00 -1.003200000000000064e-01 3.195320000000000160e+00 6.524659999999999904e+00 3.181130000000000013e+00 3.207380000000000120e+00 3.260380000000000056e+00 3.290160000000000196e+00 6.449810000000000265e+00 3.229999999999999798e-03 4.789760000000000240e+00 1.606340000000000101e+00 1.637240000000000029e+00 1.511079999999999979e+00 1.607699999999999907e+00 4.905389999999999695e+00 1.624149999999999983e+00 4.826699999999999768e+00 1.633140000000000036e+00 4.751649999999999707e+00 4.813550000000000217e+00 4.900769999999999627e+00
7.943099999999999605e-01 7.978600000000000136e-01 8.210399999999999920e-01 5.539209999999999745e+00 2.414250000000000007e+00 4.101939999999999920e+00 2.330709999999999837e+00 4.008600000000000385e+00 5.731559999999999988e+00 4.031690000000000218e+00 5.638810000000000322e+00 2.459020000000000206e+00 2.376009999999999955e+00 5.626780000000000115e+00 4.080000000000000071e+00 5.610450000000000159e+00 4.026010000000000311e+00 2.458909999999999929e+00 3.920030000000000125e+00 2.399459999999999926e+00 5.718069999999999986e+00 7.445399999999999796e-01 4.022579999999999600e+00 4.073199999999999932e+00 5.684910000000000352e+00 5.642109999999999737e+00 8.195700000000000207e-01 2.357810000000000183e+00 8.111199999999999521e-01 2.444980000000000153e+00 2.413450000000000095e+00 2.406480000000000175e+00 7.966199999999999948e-01 5.489239999999999675e+00 7.738199999999999523e-01 5.710709999999999731e+00 3.928360000000000074e+00 8.014499999999999957e-01 4.080090000000000217e+00 7.566000000000000503e-01 5.632729999999999571e+00 5.718210000000000015e+00 7.802700000000000191e-01 2.413850000000000051e+00 2.442860000000000031e+00 4.034390000000000143e+00 4.022319999999999673e+00 8.068400000000000016e-01 -6.794999999999999651e-02 -2.309999999999999987e-03 3.273299999999999876e+00 -1.008600000000000052e-01 3.190659999999999830e+00 6.520920000000000272e+00 3.185970000000000191e+00 3.202609999999999957e+00 3.256320000000000103e+00 3.194380000000000219e+00 8.499999999999999526e-04 2.969999999999999984e-03 4.788579999999999615e+00 1.609240000000000004e+00 1.635010000000000074e+00 1.509560000000000013e+00 1.613539999999999974e+00 4.907049999999999912e+00 1.620679999999999898e+00 4.820009999999999906e+00 1.633170000000000011e+00 4.748829999999999885e+00 4.809219999999999828e+00 4.898760000000000225e+00
7.911799999999999944e-01 7.964299999999999713e-01 8.209400000000000031e-01 5.538179999999999659e+00 2.418880000000000141e+00 4.107529999999999681e+00 2.332650000000000112e+00 4.008770000000000167e+00 5.737610000000000099e+00 4.033789999999999765e+00 5.639859999999999651e+00 2.464199999999999946e+00 2.369689999999999852e+00 5.624670000000000059e+00 4.079180000000000028e+00 5.609280000000000044e+00 4.025839999999999641e+00 2.460669999999999913e+00 3.928209999999999980e+00 2.397699999999999942e+00 5.719750000000000334e+00 7.381999999999999673e-01 4.027309999999999945e+00 4.069700000000000095e+00 5.691600000000000215e+00 5.639459999999999695e+00 8.228699999999999903e-01 2.358190000000000008e+00 8.168699999999999850e-01 2.442410000000000192e+00 2.411470000000000002e+00 2.401330000000000187e+00 7.866900000000000004e-01 5.493560000000000443e+00 7.701299999999999812e-01 5.712819999999999787e+00 3.930909999999999904e+00 8.094099999999999628e-01 4.082340000000000302e+00 7.589500000000000135e-01 5.632139999999999702e+00 5.721029999999999838e+00 7.808100000000000041e-01 2.415379999999999860e+00 2.440100000000000158e+00 4.030610000000000248e+00 4.017699999999999605e+00 8.033400000000000540e-01 -6.442000000000000504e-02 2.409999999999999816e-03 3.276879999999999793e+00 -1.014000000000000040e-01 3.186020000000000074e+00 6.517190000000000261e+00 3.190789999999999793e+00 3.197859999999999925e+00 3.252270000000000216e+00 3.190620000000000012e+00 4.380000000000000213e-03 2.700000000000000143e-03 4.787399999999999878e+00 1.612139999999999906e+00 1.632789999999999964e+00 1.508029999999999982e+00 1.619359999999999911e+00 4.908689999999999998e+00 1.617220000000000102e+00 4.813329999999999664e+00 1.633219999999999894e+00 4.746010000000000062e+00 4.804909999999999570e+00 4.896749999999999936e+00
7.880500000000000282e-01 7.950300000000000145e-01 8.208400000000000141e-01 5.537200000000000344e+00 2.423490000000000144e+00 4.113059999999999938e+00 2.334560000000000191e+00 4.008960000000000079e+00 5.743560000000000443e+00 4.035859999999999559e+00 5.640909999999999869e+00 2.469339999999999868e+00 2.363430000000000142e+00 5.622589999999999755e+00 4.078339999999999854e+00 5.608039999999999914e+00 4.025649999999999729e+00 2.462359999999999882e+00 3.936339999999999950e+00 2.395919999999999828e+00 5.721429999999999794e+00 7.319499999999999895e-01 4.032040000000000290e+00 4.066270000000000273e+00 5.698220000000000063e+00 5.636790000000000411e+00 8.261800000000000255e-01 2.358600000000000030e+00 8.225900000000000434e-01 2.439880000000000049e+00 2.409499999999999975e+00 2.396189999999999820e+00 7.767899999999999805e-01 5.497860000000000191e+00 7.664499999999999647e-01 5.714949999999999974e+00 3.933419999999999916e+00 8.173200000000000465e-01 4.084570000000000256e+00 7.613199999999999967e-01 5.631520000000000081e+00 5.723840000000000039e+00 7.813400000000000345e-01 2.416910000000000114e+00 2.437359999999999971e+00 4.026880000000000237e+00 4.013139999999999930e+00 7.999300000000000299e-01 -6.088999999999999968e-02 7.130000000000000053e-03 3.280450000000000088e+00 -1.019400000000000028e-01 3.181410000000000071e+00 6.513480000000000381e+00 3.195590000000000153e+00 3.193140000000000089e+00 3.248219999999999885e+00 3.186879999999999935e+00 7.900000000000000772e-03 2.419999999999999842e-03 4.786229999999999762e+00 1.615019999999999900e+00 1.630560000000000009e+00 1.506510000000000016e+00 1.625150000000000095e+00 4.910309999999999953e+00 1.613790000000000058e+00 4.806659999999999933e+00 1.633270000000000000e+00 4.743199999999999861e+00 4.800629999999999953e+00 4.894750000000000156e+00
8.217100000000000515e-01 7.853200000000000180e-01 8.233599999999999808e-01 5.646989999999999732e+00 2.305009999999999781e+00 4.115050000000000097e+00 2.539719999999999978e+00 3.868090000000000028e+00 5.753960000000000186e+00 4.119650000000000034e+00 5.530310000000000059e+00 2.467729999999999979e+00 2.548550000000000093e+00 5.493350000000000399e+00 4.108590000000000408e+00 5.670869999999999855e+00 3.933980000000000032e+00 2.454940000000000122e+00 4.077539999999999942e+00 2.276499999999999968e+00 5.750860000000000305e+00 9.292700000000000404e-01 3.901209999999999845e+00 4.108179999999999943e+00 5.687990000000000101e+00 5.566980000000000040e+00 8.181399999999999784e-01 2.417689999999999895e+00 7.507200000000000539e-01 2.464290000000000092e+00 2.447010000000000129e+00 2.382150000000000212e+00 8.269199999999999884e-01 5.630359999999999587e+00 6.723900000000000432e-01 5.746859999999999857e+00 4.025590000000000224e+00 7.044399999999999551e-01 4.100769999999999804e+00 9.751900000000000013e-01 5.464909999999999712e+00 5.752110000000000056e+00 8.673999999999999488e-01 2.345769999999999911e+00 2.457730000000000192e+00 4.079399999999999693e+00 3.973069999999999879e+00 8.204700000000000326e-01 3.944000000000000283e-02 -6.787999999999999590e-02 3.272930000000000117e+00 7.296999999999999320e-02 3.188849999999999962e+00 5.780000000000000415e-03 3.276470000000000216e+00 3.113849999999999785e+00 3.284180000000000099e+00 3.318169999999999842e+00 6.377650000000000041e+00 6.109999999999999980e-03 4.814409999999999634e+00 1.564140000000000086e+00 1.649699999999999944e+00 1.668139999999999956e+00 1.495379999999999932e+00 4.926249999999999574e+00 1.713540000000000063e+00 4.753190000000000026e+00 1.648490000000000011e+00 4.913969999999999949e+00 4.686840000000000117e+00 4.930170000000000385e+00
8.229600000000000248e-01 7.892099999999999671e-01 8.247799999999999576e-01 5.643830000000000346e+00 2.299529999999999852e+00 4.116719999999999935e+00 2.548000000000000043e+00 3.864020000000000010e+00 5.755209999999999937e+00 4.122309999999999697e+00 5.529889999999999972e+00 2.469489999999999963e+00 2.548350000000000115e+00 5.491329999999999600e+00 4.103469999999999729e+00 5.673239999999999839e+00 3.936890000000000001e+00 2.446839999999999904e+00 4.079469999999999708e+00 2.279589999999999783e+00 5.749439999999999884e+00 9.301000000000000378e-01 3.897149999999999892e+00 4.104849999999999888e+00 5.686759999999999593e+00 5.568660000000000387e+00 8.138800000000000479e-01 2.413019999999999943e+00 7.492600000000000371e-01 2.461450000000000138e+00 2.448430000000000106e+00 2.391220000000000123e+00 8.306799999999999740e-01 5.625519999999999854e+00 6.678399999999999892e-01 5.748140000000000249e+00 4.023109999999999964e+00 7.037999999999999812e-01 4.097669999999999924e+00 9.743399999999999839e-01 5.468180000000000263e+00 5.753040000000000376e+00 8.658799999999999830e-01 2.344749999999999890e+00 2.453619999999999912e+00 4.084529999999999994e+00 3.975249999999999950e+00 8.232399999999999718e-01 4.191999999999999893e-02 -6.343999999999999639e-02 3.266360000000000152e+00 6.417860000000000120e+00 3.187180000000000124e+00 1.680999999999999855e-02 3.275090000000000057e+00 3.107689999999999841e+00 3.282550000000000079e+00 3.314929999999999932e+00 6.372539999999999871e+00 7.929999999999999549e-03 4.814090000000000202e+00 1.566959999999999908e+00 1.656209999999999960e+00 1.667610000000000037e+00 1.491109999999999935e+00 4.923569999999999780e+00 1.714909999999999934e+00 4.755189999999999806e+00 1.651810000000000000e+00 4.916990000000000194e+00 4.692569999999999908e+00 4.934619999999999784e+00
8.242000000000000437e-01 7.930899999999999617e-01 8.261699999999999600e-01 5.640710000000000335e+00 2.294080000000000119e+00 4.118350000000000399e+00 2.556220000000000159e+00 3.859999999999999876e+00 5.756450000000000067e+00 4.124970000000000248e+00 5.529469999999999885e+00 2.471220000000000194e+00 2.548140000000000072e+00 5.489320000000000199e+00 4.098349999999999937e+00 5.675629999999999953e+00 3.939779999999999838e+00 2.438790000000000013e+00 4.081409999999999982e+00 2.282630000000000159e+00 5.748029999999999973e+00 9.309100000000000152e-01 3.893089999999999939e+00 4.101530000000000342e+00 5.685550000000000104e+00 5.570359999999999978e+00 8.096400000000000263e-01 2.408380000000000187e+00 7.477899999999999547e-01 2.458619999999999806e+00 2.449850000000000083e+00 2.400259999999999838e+00 8.344200000000000506e-01 5.620689999999999742e+00 6.633200000000000207e-01 5.749430000000000263e+00 4.020620000000000083e+00 7.032000000000000473e-01 4.094590000000000174e+00 9.735099999999999865e-01 5.471420000000000172e+00 5.753949999999999676e+00 8.643600000000000172e-01 2.343729999999999869e+00 2.449549999999999894e+00 4.089629999999999654e+00 3.977419999999999956e+00 8.260100000000000220e-01 4.438000000000000278e-02 -5.900999999999999995e-02 3.259819999999999940e+00 6.411870000000000402e+00 3.185529999999999973e+00 2.782000000000000098e-02 3.273709999999999898e+00 3.101550000000000029e+00 3.280930000000000124e+00 3.311679999999999957e+00 6.367449999999999832e+00 9.740000000000000394e-03 4.813769999999999882e+00 1.569760000000000044e+00 1.662700000000000067e+00 1.667089999999999961e+00 1.486839999999999939e+00 4.920889999999999986e+00 1.716290000000000093e+00 4.757189999999999586e+00 1.655119999999999925e+00 4.920029999999999681e+00 4.698279999999999568e+00 4.939059999999999562e+00
8.254200000000000426e-01 7.969399999999999817e-01 8.275000000000000133e-01 5.637629999999999697e+00 2.288670000000000204e+00 4.119939999999999714e+00 2.564340000000000064e+00 3.856030000000000069e+00 5.757659999999999556e+00 4.127609999999999779e+00 5.529060000000000308e+00 2.472939999999999916e+00 2.547919999999999963e+00 5.487300000000000288e+00 4.093259999999999899e+00 5.678040000000000198e+00 3.942670000000000119e+00 2.430839999999999890e+00 4.083350000000000257e+00 2.285610000000000142e+00 5.746629999999999683e+00 9.316999999999999726e-01 3.889040000000000052e+00 4.098239999999999661e+00 5.684359999999999857e+00 5.572090000000000209e+00 8.054200000000000248e-01 2.403789999999999871e+00 7.463100000000000289e-01 2.455789999999999917e+00 2.451290000000000191e+00 2.409269999999999801e+00 8.381300000000000416e-01 5.615859999999999630e+00 6.588300000000000267e-01 5.750709999999999766e+00 4.018139999999999823e+00 7.026299999999999768e-01 4.091540000000000177e+00 9.727299999999999836e-01 5.474610000000000198e+00 5.754839999999999733e+00 8.628200000000000314e-01 2.342709999999999848e+00 2.445530000000000204e+00 4.094660000000000188e+00 3.979569999999999830e+00 8.287700000000000067e-01 4.682000000000000051e-02 -5.458999999999999964e-02 3.253319999999999990e+00 6.405899999999999928e+00 3.183879999999999821e+00 3.878000000000000197e-02 3.272339999999999804e+00 3.095439999999999969e+00 3.279329999999999856e+00 3.308440000000000047e+00 6.362390000000000434e+00 1.154999999999999950e-02 4.813460000000000072e+00 1.572549999999999892e+00 1.669170000000000043e+00 1.666570000000000107e+00 1.482569999999999943e+00 4.918219999999999814e+00 1.717670000000000030e+00 4.759170000000000122e+00 1.658400000000000096e+00 4.923090000000000188e+00 4.703960000000000363e+00 4.943459999999999965e+00
8.229300000000000503e-01 8.097600000000000353e-01 8.262300000000000200e-01 5.680220000000000269e+00 2.447610000000000063e+00 4.079889999999999795e+00 2.518949999999999800e+00 4.049179999999999779e+00 5.720819999999999794e+00 4.119839999999999947e+00 5.579780000000000406e+00 2.447670000000000012e+00 2.534710000000000019e+00 5.612250000000000405e+00 4.087480000000000224e+00 5.695599999999999774e+00 3.995350000000000179e+00 2.448570000000000135e+00 4.092139999999999667e+00 2.468030000000000168e+00 5.726420000000000066e+00 9.071299999999999919e-01 4.027359999999999829e+00 4.084050000000000402e+00 5.696130000000000138e+00 5.553410000000000402e+00 8.181199999999999584e-01 2.432100000000000151e+00 8.260399999999999965e-01 2.450800000000000090e+00 2.446210000000000218e+00 2.388220000000000010e+00 8.181000000000000494e-01 5.671129999999999782e+00 8.869299999999999962e-01 5.723819999999999908e+00 4.056230000000000224e+00 8.622100000000000319e-01 4.087600000000000122e+00 9.410100000000000131e-01 5.641449999999999854e+00 5.724689999999999834e+00 8.618900000000000450e-01 2.422890000000000210e+00 2.457250000000000156e+00 4.073719999999999786e+00 3.973599999999999799e+00 8.175900000000000389e-01 6.429149999999999920e+00 5.798999999999999988e-02 3.273080000000000211e+00 5.528999999999999887e-02 3.166290000000000049e+00 2.860000000000000129e-03 3.285099999999999909e+00 3.221740000000000048e+00 3.269870000000000054e+00 3.269559999999999800e+00 1.089999999999999997e-01 6.534620000000000317e+00 4.845340000000000202e+00 1.609680000000000000e+00 1.639550000000000063e+00 1.675210000000000088e+00 1.663710000000000022e+00 4.903660000000000352e+00 1.693659999999999943e+00 4.780030000000000001e+00 1.635429999999999939e+00 4.924739999999999895e+00 4.829670000000000130e+00 4.904779999999999696e+00
8.235299999999999843e-01 8.064999999999999947e-01 8.220600000000000129e-01 5.679800000000000182e+00 2.439189999999999969e+00 4.076089999999999769e+00 2.520620000000000083e+00 4.048470000000000013e+00 5.715499999999999581e+00 4.119130000000000180e+00 5.576810000000000045e+00 2.445409999999999862e+00 2.535280000000000200e+00 5.613349999999999618e+00 4.089229999999999698e+00 5.690260000000000318e+00 3.992669999999999941e+00 2.447670000000000012e+00 4.093969999999999665e+00 2.463350000000000151e+00 5.736810000000000187e+00 9.055199999999999916e-01 4.025760000000000005e+00 4.087819999999999787e+00 5.695170000000000066e+00 5.562129999999999797e+00 8.136200000000000099e-01 2.431540000000000035e+00 8.240100000000000202e-01 2.452269999999999950e+00 2.446870000000000100e+00 2.393029999999999990e+00 8.165999999999999925e-01 5.668759999999999799e+00 8.851099999999999524e-01 5.727479999999999905e+00 4.055690000000000239e+00 8.603300000000000392e-01 4.089909999999999712e+00 9.445799999999999752e-01 5.641090000000000160e+00 5.721879999999999633e+00 8.595699999999999452e-01 2.420119999999999827e+00 2.456820000000000004e+00 4.075940000000000119e+00 3.977869999999999795e+00 8.105299999999999727e-01 6.428490000000000038e+00 5.899000000000000077e-02 3.273960000000000203e+00 5.240999999999999825e-02 3.165529999999999955e+00 4.000000000000000192e-04 3.283570000000000100e+00 3.216439999999999966e+00 3.275419999999999998e+00 3.277149999999999785e+00 1.090300000000000019e-01 6.534250000000000114e+00 4.848849999999999660e+00 1.613580000000000014e+00 1.650269999999999904e+00 1.672220000000000040e+00 1.670379999999999976e+00 4.905339999999999812e+00 1.689410000000000078e+00 4.786699999999999733e+00 1.633040000000000047e+00 4.929369999999999585e+00 4.830779999999999852e+00 4.899949999999999584e+00