-2.103610023100000035e+02
-2.103520012099999974e+02
-2.103271929899999861e+02
-2.102882083099999875e+02
-2.102352587899999889e+02
-2.107779652399999861e+02
-2.107695394200000010e+02
-2.107475266200000021e+02
-2.107148829100000000e+02
-2.106673352800000032e+02
-2.105380628800000125e+02
-2.105202101600000049e+02
-2.104894826000000023e+02
-2.104464098999999919e+02
-2.105552850999999919e+02
-2.105500608000000113e+02
-2.105334650899999929e+02
-2.105055406399999924e+02
-2.104664900799999998e+02
-2.099805449399999873e+02
-2.099754660700000102e+02
-2.099547844100000020e+02
-2.099193630199999916e+02
-2.098695325799999978e+02
-2.113898037300000112e+02
-2.113837273000000039e+02
-2.113692754600000114e+02
-2.113450130399999978e+02
-2.113111127299999907e+02
-2.111534900899999911e+02
-2.111487462100000130e+02
-2.111348046299999908e+02
-2.111118667400000106e+02
-2.110796808899999917e+02
-2.111347965500000043e+02
-2.111323874900000135e+02
-2.111195603300000130e+02
-2.110962149800000134e+02
-2.110628629900000135e+02
-2.111965467299999943e+02
-2.111930381999999895e+02
-2.111803337300000010e+02
-2.111579403700000057e+02
-2.111260105400000100e+02
-2.112492730600000073e+02
-2.112450400200000047e+02
-2.112319811799999911e+02
-2.112100864299999898e+02
-2.111793073599999957e+02
-2.101750418100000104e+02
-2.101705289600000128e+02
-2.101592311900000141e+02
-2.101399772999999982e+02
-2.101132900899999925e+02
-2.109706127800000104e+02
-2.109667234300000018e+02
-2.109540646499999923e+02
-2.109322473000000002e+02
-2.109015028299999983e+02
-2.088074064500000020e+02
-2.088030778799999894e+02
-2.087912988600000119e+02
-2.087717382099999952e+02
-2.087444380100000103e+02
-2.099045147200000088e+02
-2.098998306400000047e+02
-2.098872190399999909e+02
-2.098666034100000104e+02
-2.098385160299999939e+02
-2.102040747300000021e+02
-2.102012123499999916e+02
-2.101906654800000069e+02
-2.101724428500000101e+02
-2.101465254100000095e+02
