-9.899999999999999404e-05 5.399999999999999798e-05 3.899999999999999929e-05 1.399999999999999979e-05 1.800000000000000046e-05 -1.099999999999999971e-05 -6.999999999999999895e-06 -4.500000000000000283e-05 2.699999999999999899e-05 1.129999999999999955e-04 -7.999999999999999638e-06 -9.999999999999999547e-07 -2.099999999999999884e-05 -1.500000000000000038e-05 -2.300000000000000002e-05 6.000000000000000152e-06 -2.599999999999999840e-05 -1.200000000000000030e-05 1.050000000000000044e-04 5.000000000000000240e-05 3.800000000000000209e-05 -1.200000000000000030e-04 -1.200000000000000030e-05 3.999999999999999819e-06 1.099999999999999971e-05 -2.799999999999999958e-05 2.500000000000000120e-05 -1.900000000000000105e-05 3.699999999999999811e-05 -1.900000000000000105e-05 -3.999999999999999819e-06 2.300000000000000002e-05 1.699999999999999987e-05 2.099999999999999884e-05 3.600000000000000091e-05 -9.999999999999999547e-07 1.179999999999999951e-04 2.099999999999999884e-05 -4.000000000000000327e-05 -1.140000000000000063e-04 -3.399999999999999973e-05 -1.200000000000000030e-05 -1.019999999999999992e-04 -1.200000000000000030e-05 -3.300000000000000253e-05 1.019999999999999992e-04 -5.899999999999999754e-05 -9.999999999999999547e-07 -5.199999999999999680e-05 -9.999999999999999547e-07 -1.599999999999999928e-05 -4.899999999999999842e-05 -1.200000000000000030e-05 6.000000000000000152e-06 5.800000000000000034e-05 -1.099999999999999971e-05 -2.099999999999999884e-05 5.800000000000000034e-05 0.000000000000000000e+00 1.200000000000000030e-05 5.500000000000000196e-05 3.000000000000000076e-05 1.000000000000000082e-05 -6.799999999999999946e-05 3.199999999999999855e-05 3.000000000000000076e-06 -6.200000000000000270e-05 -1.900000000000000105e-05 7.999999999999999638e-06 5.899999999999999754e-05 -2.099999999999999884e-05 9.999999999999999547e-07
4.137500000000000205e-02 1.058300000000000039e-02 -6.355199999999999738e-02 -3.654000000000000130e-03 -3.567700000000000038e-02 -6.393300000000000372e-02 7.473599999999999688e-02 2.355099999999999902e-02 3.430199999999999916e-02 -1.728959999999999941e-01 1.906420000000000059e-01 1.858350000000000002e-01 2.476300000000000029e-02 -1.077200000000000032e-02 -1.168990000000000029e-01 1.257409999999999917e-01 -8.157799999999999774e-02 -1.006899999999999983e-02 -1.221959999999999991e-01 1.719579999999999997e-01 3.357999999999999874e-03 -6.744400000000000395e-02 3.886699999999999877e-02 -1.380770000000000053e-01 1.711799999999999988e-01 1.387099999999999965e-02 -1.332280000000000131e-01 1.517300000000000072e-02 3.569000000000000124e-03 1.043400000000000022e-01 -8.121200000000000641e-02 -5.689899999999999819e-02 -3.339099999999999707e-02 1.432829999999999937e-01 -1.901940000000000019e-01 5.277899999999999953e-02 -1.207800000000000019e-02 -3.213599999999999790e-02 -5.975099999999999856e-02 -1.246440000000000048e-01 4.466699999999999837e-02 1.418500000000000039e-01 -6.997899999999999954e-02 1.328390000000000126e-01 9.639599999999999558e-02 4.416599999999999693e-02 5.382999999999999764e-03 2.269999999999999882e-03 -9.598999999999999894e-03 6.282000000000000257e-03 -2.507500000000000007e-02 3.249999999999999851e-04 -8.205000000000000487e-03 2.679700000000000137e-02 3.374200000000000116e-02 -6.436400000000000454e-02 7.160999999999999831e-03 7.867000000000000728e-03 2.197999999999999867e-03 -6.152000000000000350e-03 3.400299999999999850e-02 -3.464899999999999924e-02 2.625600000000000156e-02 1.936299999999999827e-02 1.145900000000000044e-02 -1.488699999999999919e-02 -6.675699999999999690e-02 -5.038200000000000317e-02 -8.338999999999999191e-03 -5.686000000000000082e-03 -4.518000000000000314e-03 2.107399999999999898e-02
6.609700000000000297e-02 7.468999999999999945e-03 -1.161800000000000055e-01 -8.255000000000000185e-03 -7.057800000000000185e-02 -1.237680000000000030e-01 1.405869999999999898e-01 3.947699999999999820e-02 6.787500000000000477e-02 -3.360859999999999959e-01 3.558169999999999944e-01 3.618790000000000062e-01 6.212700000000000167e-02 -1.007399999999999962e-02 -2.134280000000000066e-01 2.521599999999999953e-01 -1.645369999999999888e-01 -2.117399999999999838e-02 -2.260179999999999967e-01 2.958830000000000071e-01 4.516000000000000049e-03 -1.202010000000000023e-01 6.991100000000000092e-02 -2.609920000000000018e-01 3.088560000000000194e-01 3.253600000000000242e-02 -2.436069999999999902e-01 3.498099999999999821e-02 -1.364800000000000041e-02 1.920360000000000122e-01 -1.473579999999999890e-01 -9.738299999999999734e-02 -5.200500000000000261e-02 2.632459999999999800e-01 -3.388760000000000105e-01 8.959499999999999409e-02 -2.348899999999999946e-02 -6.360699999999999688e-02 -1.165429999999999938e-01 -2.344360000000000055e-01 9.733500000000000485e-02 2.641330000000000067e-01 -1.181159999999999988e-01 2.239240000000000119e-01 1.612490000000000034e-01 7.263699999999999324e-02 -7.915999999999999426e-03 -1.869200000000000028e-02 -1.911500000000000005e-02 1.235100000000000087e-02 -4.999800000000000078e-02 4.380000000000000213e-04 -1.657799999999999899e-02 5.355000000000000038e-02 7.962900000000000533e-02 -1.433049999999999879e-01 9.945000000000000714e-03 1.549299999999999983e-02 4.250000000000000305e-03 -1.253699999999999953e-02 7.870699999999999918e-02 -7.876900000000000568e-02 5.489200000000000329e-02 3.845599999999999713e-02 2.294600000000000112e-02 -2.865099999999999938e-02 -1.457589999999999997e-01 -1.151800000000000046e-01 -2.338799999999999907e-02 -1.126300000000000044e-02 -8.418999999999999401e-03 4.146099999999999786e-02
9.913900000000000490e-02 1.216500000000000047e-02 -1.717829999999999913e-01 -9.074000000000000468e-03 -7.921999999999999875e-02 -1.672909999999999953e-01 2.012790000000000135e-01 4.232500000000000151e-02 1.009810000000000013e-01 -5.172160000000000091e-01 5.165279999999999871e-01 5.583730000000000082e-01 9.473099999999999576e-02 -1.478999999999999933e-02 -3.056280000000000108e-01 3.773159999999999847e-01 -2.440150000000000097e-01 -2.961400000000000143e-02 -3.497720000000000273e-01 4.062990000000000212e-01 6.977999999999999828e-03 -1.743639999999999912e-01 1.005100000000000021e-01 -3.815120000000000178e-01 4.331849999999999867e-01 4.476900000000000324e-02 -3.708170000000000077e-01 4.439599999999999796e-02 -7.427999999999999707e-03 2.854220000000000090e-01 -2.215519999999999989e-01 -1.455039999999999945e-01 -7.928000000000000325e-02 3.938139999999999974e-01 -4.991050000000000209e-01 1.400150000000000006e-01 -3.470100000000000268e-02 -9.330499999999999905e-02 -1.690290000000000126e-01 -3.417439999999999922e-01 1.388439999999999952e-01 3.802490000000000037e-01 -1.754439999999999888e-01 3.041510000000000047e-01 2.418480000000000074e-01 1.094249999999999945e-01 -1.252799999999999921e-02 -3.142199999999999854e-02 -2.988499999999999837e-02 1.849100000000000049e-02 -7.819099999999999662e-02 1.969999999999999909e-04 -2.533200000000000035e-02 7.985200000000000631e-02 1.254510000000000070e-01 -2.212300000000000100e-01 1.767099999999999921e-02 2.297400000000000136e-02 6.349999999999999742e-03 -1.890100000000000113e-02 1.227079999999999976e-01 -1.233439999999999953e-01 8.144099999999999950e-02 6.212700000000000167e-02 4.041199999999999654e-02 -4.747300000000000131e-02 -2.231779999999999875e-01 -1.797489999999999921e-01 -3.161300000000000221e-02 -1.693599999999999967e-02 -1.247799999999999951e-02 6.104099999999999804e-02
1.076330000000000064e-01 1.387200000000000065e-02 -2.253940000000000110e-01 -8.659000000000000030e-03 -8.656200000000000006e-02 -2.267450000000000021e-01 2.608750000000000235e-01 4.480100000000000054e-02 1.350739999999999996e-01 -6.679779999999999607e-01 6.667920000000000513e-01 7.203079999999999483e-01 1.241379999999999983e-01 -8.944000000000000561e-03 -3.821379999999999777e-01 4.950169999999999848e-01 -3.134390000000000231e-01 -2.691199999999999842e-02 -4.611999999999999988e-01 5.636130000000000306e-01 6.228000000000000029e-03 -2.394270000000000009e-01 1.416010000000000046e-01 -5.140609999999999902e-01 5.602009999999999490e-01 4.955999999999999989e-02 -4.970589999999999731e-01 4.705399999999999860e-02 -7.820000000000000345e-04 3.698210000000000108e-01 -2.877489999999999770e-01 -1.879969999999999974e-01 -8.797199999999999465e-02 5.296030000000000459e-01 -6.618060000000000054e-01 1.760919999999999985e-01 -4.164999999999999952e-02 -1.056359999999999938e-01 -2.425740000000000118e-01 -4.532939999999999747e-01 1.756870000000000098e-01 4.697379999999999889e-01 -2.324209999999999887e-01 3.904719999999999858e-01 3.276879999999999793e-01 1.450609999999999955e-01 -1.461699999999999978e-02 -6.724499999999999922e-02 -3.849700000000000344e-02 2.384999999999999967e-02 -1.185749999999999998e-01 -2.265999999999999785e-03 -4.310900000000000148e-02 1.045210000000000028e-01 1.664829999999999921e-01 -2.910099999999999909e-01 2.179000000000000034e-02 3.042299999999999865e-02 8.486000000000000487e-03 -2.515799999999999981e-02 1.652520000000000100e-01 -1.638149999999999884e-01 1.086769999999999958e-01 8.326400000000000468e-02 5.977999999999999980e-02 -6.400699999999999446e-02 -2.922500000000000098e-01 -2.348169999999999980e-01 -4.697199999999999986e-02 -2.267900000000000124e-02 -1.658899999999999958e-02 7.981299999999999506e-02
-1.426139999999999908e-01 5.038299999999999723e-02 -9.708999999999999575e-02 4.225299999999999889e-02 1.894900000000000057e-02 -1.192200000000000065e-01 -7.480599999999999750e-02 8.957500000000000184e-02 -8.087700000000000444e-02 -2.098000000000000038e-03 -4.076099999999999862e-02 -4.187899999999999956e-02 -1.572099999999999886e-02 -4.750200000000000256e-02 3.912999999999999812e-03 -1.563269999999999937e-01 -2.310399999999999954e-02 -1.332520000000000093e-01 2.343900000000000150e-02 -1.238729999999999970e-01 3.337299999999999989e-02 1.493500000000000105e-01 7.680599999999999927e-02 1.178789999999999977e-01 -6.106999999999999929e-02 -5.904999999999999832e-02 4.279199999999999671e-02 5.773500000000000160e-02 -1.183400000000000077e-02 4.133200000000000068e-02 6.231600000000000333e-02 2.010000000000000068e-04 1.812700000000000075e-02 5.244999999999999662e-02 6.442499999999999616e-02 1.603390000000000093e-01 -5.561399999999999677e-02 1.015240000000000031e-01 4.401100000000000151e-02 3.844199999999999701e-02 -1.154109999999999997e-01 -2.592699999999999866e-02 -5.002500000000000002e-02 -1.007699999999999915e-02 3.163400000000000239e-02 7.488200000000000411e-02 -3.524900000000000255e-02 9.654699999999999394e-02 3.190099999999999880e-02 2.818899999999999878e-02 -1.935999999999999874e-02 -2.078299999999999939e-02 3.091700000000000004e-02 1.001800000000000086e-02 -2.361999999999999950e-03 3.882700000000000040e-02 -1.377199999999999952e-02 2.655300000000000021e-02 6.959200000000000108e-02 -4.180400000000000088e-02 -1.205200000000000021e-02 1.519299999999999991e-02 -3.321400000000000047e-02 -6.373000000000000193e-03 -6.935700000000000198e-02 -2.204199999999999909e-02 2.918300000000000061e-02 -2.392299999999999982e-02 2.898999999999999841e-02 1.653800000000000062e-02 1.544000000000000017e-03 6.859999999999999779e-04
-9.834299999999999986e-02 7.123300000000000465e-02 -4.568300000000000138e-02 1.108880000000000005e-01 -2.270499999999999949e-02 -1.874049999999999883e-01 -1.290399999999999880e-01 8.608899999999999886e-02 -2.351900000000000102e-01 -4.863100000000000062e-02 -2.755799999999999916e-02 -8.941999999999999948e-02 9.190800000000000358e-02 2.277399999999999911e-02 -5.015999999999999626e-03 -2.106750000000000012e-01 -3.438999999999999696e-02 -1.994430000000000092e-01 -7.655399999999999705e-02 -9.483300000000000063e-02 1.601400000000000046e-02 2.640299999999999869e-01 3.701000000000000123e-02 2.028659999999999908e-01 -1.872530000000000028e-01 -7.974599999999999744e-02 3.538100000000000273e-02 1.041699999999999987e-01 -9.910700000000000065e-02 9.493400000000000449e-02 6.937100000000000211e-02 9.010999999999999913e-03 7.820100000000000662e-02 -1.304400000000000004e-02 6.359199999999999575e-02 1.115489999999999954e-01 -1.302490000000000037e-01 -2.151000000000000134e-02 1.659700000000000064e-02 3.097099999999999853e-02 -1.345649999999999902e-01 -5.297400000000000025e-02 -6.156999999999999973e-02 -1.341200000000000031e-02 6.368000000000000049e-02 1.674160000000000093e-01 8.317599999999999993e-02 2.189059999999999895e-01 8.545000000000000512e-03 2.193300000000000111e-02 -4.141500000000000042e-02 -1.299200000000000008e-02 7.215299999999999492e-02 3.758000000000000229e-02 -5.107799999999999840e-02 8.404000000000000359e-02 5.342999999999999659e-03 7.501299999999999635e-02 3.051999999999999852e-02 -3.690700000000000230e-02 4.880999999999999922e-03 -1.477400000000000067e-02 -1.208200000000000073e-02 7.839999999999999747e-04 -9.510299999999999310e-02 -4.511799999999999838e-02 6.324000000000000454e-02 1.836600000000000038e-02 4.134399999999999881e-02 1.691300000000000095e-02 5.695399999999999768e-02 2.874600000000000072e-02
-3.778900000000000314e-02 9.799800000000000177e-02 1.911600000000000105e-02 1.761810000000000043e-01 -6.899099999999999677e-02 -2.658300000000000107e-01 -1.777459999999999873e-01 9.937000000000000000e-02 -3.995400000000000063e-01 -8.333999999999999742e-02 -2.569300000000000056e-02 -1.410879999999999912e-01 2.018949999999999911e-01 9.467499999999999527e-02 -2.406900000000000012e-02 -2.655930000000000235e-01 -3.388599999999999945e-02 -2.684929999999999817e-01 -1.596349999999999991e-01 -8.888699999999999379e-02 8.328000000000000333e-03 3.994099999999999873e-01 4.308000000000000197e-03 2.796770000000000089e-01 -3.112969999999999904e-01 -1.141530000000000045e-01 4.644299999999999817e-02 1.364650000000000030e-01 -1.672119999999999995e-01 1.289140000000000008e-01 6.983699999999999630e-02 2.592300000000000160e-02 1.557810000000000028e-01 -9.090499999999999969e-02 5.643999999999999712e-02 5.395599999999999702e-02 -2.049799999999999955e-01 -1.522439999999999904e-01 -2.873500000000000013e-02 3.234000000000000069e-02 -1.586660000000000015e-01 -8.695100000000000051e-02 -7.162000000000000310e-02 -1.304899999999999984e-02 9.348199999999999565e-02 2.719079999999999830e-01 2.164200000000000013e-01 3.581969999999999876e-01 -1.537299999999999951e-02 1.304600000000000030e-02 -6.155399999999999761e-02 -5.377999999999999968e-03 1.188519999999999993e-01 6.623700000000000421e-02 -9.427599999999999869e-02 1.313400000000000123e-01 2.576200000000000018e-02 1.213550000000000045e-01 -1.075599999999999994e-02 -3.155299999999999772e-02 2.091900000000000009e-02 -4.351300000000000306e-02 8.519000000000000530e-03 1.522899999999999948e-02 -1.187079999999999941e-01 -7.216100000000000292e-02 9.750799999999999745e-02 5.989499999999999685e-02 5.064400000000000152e-02 1.549700000000000036e-02 1.158030000000000032e-01 5.178399999999999670e-02
-1.444199999999999998e-02 1.198860000000000064e-01 5.204399999999999998e-02 2.462060000000000082e-01 -1.233179999999999971e-01 -3.438180000000000125e-01 -2.252500000000000058e-01 1.035750000000000004e-01 -5.429629999999999734e-01 -1.230210000000000053e-01 -6.223000000000000233e-03 -1.768649999999999944e-01 2.844499999999999806e-01 1.565070000000000072e-01 -5.940399999999999847e-02 -3.116550000000000153e-01 -5.977500000000000174e-02 -3.413769999999999860e-01 -2.611709999999999865e-01 -6.158899999999999791e-02 2.194700000000000123e-02 5.072640000000000482e-01 -4.550900000000000084e-02 3.609870000000000023e-01 -4.309140000000000192e-01 -1.208110000000000017e-01 3.157599999999999990e-02 1.869540000000000091e-01 -2.550450000000000217e-01 1.896079999999999988e-01 6.895600000000000340e-02 4.522000000000000325e-02 2.184460000000000013e-01 -1.341130000000000100e-01 4.379299999999999859e-02 4.442600000000000021e-02 -2.714969999999999883e-01 -2.743659999999999988e-01 -9.178300000000000347e-02 9.131999999999999493e-03 -1.719849999999999990e-01 -1.115540000000000004e-01 -1.029430000000000067e-01 -1.415000000000000025e-03 1.296700000000000075e-01 3.560740000000000016e-01 2.954660000000000064e-01 4.591870000000000118e-01 -4.179800000000000182e-02 6.212999999999999773e-03 -7.974100000000000632e-02 3.066999999999999848e-03 1.546069999999999944e-01 1.004879999999999940e-01 -1.425970000000000015e-01 1.759550000000000003e-01 4.562800000000000189e-02 1.708560000000000079e-01 -5.162200000000000122e-02 -2.616399999999999976e-02 3.880700000000000122e-02 -6.758999999999999730e-02 2.564100000000000060e-02 2.524099999999999955e-02 -1.430680000000000007e-01 -1.009889999999999954e-01 1.305769999999999986e-01 1.000859999999999944e-01 5.834500000000000103e-02 1.927200000000000094e-02 1.723969999999999947e-01 7.718400000000000261e-02
5.588100000000000012e-02 1.322250000000000092e-01 1.164410000000000028e-01 2.817580000000000084e-01 -1.652629999999999932e-01 -4.163899999999999824e-01 -2.715679999999999761e-01 1.278990000000000127e-01 -7.011540000000000550e-01 -1.713359999999999883e-01 -1.544999999999999932e-03 -2.218900000000000039e-01 3.948360000000000203e-01 2.268570000000000031e-01 -7.516799999999999871e-02 -3.748699999999999810e-01 -5.822700000000000098e-02 -3.967669999999999808e-01 -3.734629999999999894e-01 -4.712000000000000216e-02 3.976000000000000367e-03 6.076000000000000290e-01 -7.456999999999999740e-02 4.121839999999999948e-01 -5.521760000000000002e-01 -1.318900000000000072e-01 5.521299999999999819e-02 2.154689999999999939e-01 -3.157070000000000154e-01 2.392019999999999980e-01 6.790300000000000502e-02 3.088799999999999879e-02 3.068429999999999769e-01 -2.033870000000000122e-01 2.245700000000000127e-02 -8.330999999999999864e-03 -3.508379999999999832e-01 -3.711969999999999992e-01 -1.062290000000000040e-01 2.891900000000000026e-02 -1.822809999999999986e-01 -1.566790000000000127e-01 -1.058719999999999939e-01 -1.251000000000000029e-02 1.764759999999999940e-01 4.276530000000000054e-01 4.124280000000000168e-01 6.064699999999999536e-01 -6.719600000000000573e-02 3.950000000000000061e-04 -1.017440000000000011e-01 1.692000000000000101e-02 2.049980000000000135e-01 1.311890000000000001e-01 -1.900779999999999970e-01 2.167330000000000090e-01 6.068400000000000183e-02 2.146530000000000105e-01 -8.731200000000000072e-02 -2.137800000000000117e-02 5.157199999999999979e-02 -1.044510000000000022e-01 5.171800000000000008e-02 4.054900000000000171e-02 -1.727559999999999929e-01 -1.326350000000000029e-01 1.684700000000000086e-01 1.413159999999999972e-01 7.101499999999999480e-02 1.864700000000000038e-02 2.314130000000000076e-01 1.037099999999999966e-01
-5.126700000000000007e-02 -5.532600000000000018e-02 -9.804000000000000214e-02 8.173800000000000510e-02 6.655999999999999417e-02 -1.176800000000000068e-01 -1.800400000000000056e-01 4.777399999999999702e-02 1.106900000000000071e-02 -2.163800000000000098e-02 2.589000000000000155e-03 -6.776999999999999691e-02 -3.992400000000000115e-02 3.349400000000000294e-02 -2.030500000000000013e-02 4.845399999999999707e-02 1.332500000000000004e-02 1.766179999999999972e-01 2.717400000000000024e-02 -1.689309999999999978e-01 -1.162000000000000012e-02 -8.904499999999999915e-02 -3.102900000000000102e-02 -2.122299999999999881e-02 7.726800000000000335e-02 8.741899999999999671e-02 2.096299999999999900e-02 7.869900000000000506e-02 -6.957900000000000196e-02 3.674899999999999695e-02 2.356799999999999867e-02 -1.272299999999999993e-02 -6.000799999999999884e-02 -7.464000000000000148e-03 6.340099999999999902e-02 3.937600000000000128e-02 3.209900000000000253e-02 1.334529999999999883e-01 1.026289999999999980e-01 6.097899999999999848e-02 -5.287399999999999739e-02 -7.716999999999999901e-03 -2.126499999999999918e-02 -4.210000000000000200e-03 1.291029999999999955e-01 -1.640010000000000079e-01 -3.869100000000000317e-02 -8.530000000000000256e-04 -8.223099999999999854e-02 9.903999999999999609e-03 1.130720000000000058e-01 -4.599999999999999922e-03 3.193800000000000111e-02 -4.621200000000000307e-02 8.252000000000000654e-03 7.636700000000000432e-02 4.809000000000000080e-02 -1.962799999999999961e-02 5.972000000000000225e-02 -1.249899999999999969e-02 3.050699999999999940e-02 -5.493800000000000072e-02 -8.164299999999999335e-02 5.479500000000000343e-02 -3.719999999999999696e-02 4.805000000000000243e-03 3.091999999999999957e-02 -3.330700000000000327e-02 -7.632300000000000195e-02 9.552900000000000280e-02 -6.554799999999999516e-02 -6.043699999999999767e-02
-8.196499999999999619e-02 -9.271400000000000474e-02 -1.838799999999999879e-01 1.750980000000000036e-01 1.575799999999999979e-01 -1.914869999999999906e-01 -3.557080000000000242e-01 1.910229999999999984e-01 -5.208700000000000135e-02 -3.324699999999999878e-02 1.597200000000000009e-02 -9.241299999999999515e-02 -7.341399999999999315e-02 -4.949999999999999973e-04 6.294800000000000395e-02 7.396999999999999409e-02 -3.561199999999999782e-02 3.305989999999999762e-01 1.468900000000000067e-02 -2.584759999999999835e-01 2.372499999999999956e-02 -1.026989999999999986e-01 1.192099999999999931e-02 6.777600000000000291e-02 9.864799999999999958e-02 1.256400000000000017e-01 5.928200000000000136e-02 1.513039999999999941e-01 -6.957900000000000196e-02 2.509400000000000172e-02 3.083299999999999930e-02 -1.266029999999999933e-01 -1.111150000000000054e-01 1.698099999999999957e-02 1.224100000000000049e-01 3.805100000000000149e-02 8.451999999999999444e-03 1.556029999999999913e-01 1.259339999999999904e-01 1.564020000000000132e-01 -1.574800000000000089e-01 -6.924199999999999799e-02 -4.983699999999999936e-02 6.939999999999999988e-03 2.037559999999999927e-01 -2.433170000000000055e-01 -7.737299999999999733e-02 -2.503599999999999923e-02 -1.108900000000000025e-01 -3.508599999999999913e-02 1.564609999999999890e-01 6.080599999999999894e-02 3.180499999999999994e-02 -1.461300000000000099e-01 2.344100000000000003e-02 1.286619999999999986e-01 6.941400000000000348e-02 -1.316400000000000035e-02 1.129069999999999935e-01 -1.844700000000000159e-02 2.038900000000000087e-02 -8.700800000000000201e-02 -1.275920000000000110e-01 4.453900000000000220e-02 3.174000000000000172e-03 3.888599999999999696e-02 2.721700000000000161e-02 -4.874699999999999867e-02 -1.047249999999999986e-01 9.525500000000000633e-02 -1.206900000000000056e-01 -1.149629999999999957e-01
-1.197180000000000050e-01 -1.402819999999999900e-01 -2.700930000000000275e-01 2.567119999999999957e-01 2.587200000000000055e-01 -2.510100000000000109e-01 -5.081900000000000306e-01 3.147639999999999882e-01 -1.022850000000000009e-01 -4.061200000000000226e-02 3.736199999999999938e-02 -1.007610000000000033e-01 -1.080210000000000059e-01 -1.426200000000000037e-02 1.381209999999999938e-01 1.159690000000000026e-01 -7.391499999999999460e-02 4.770150000000000223e-01 -2.328999999999999907e-03 -3.494599999999999929e-01 5.576500000000000207e-02 -1.314879999999999938e-01 4.296099999999999919e-02 1.430480000000000085e-01 1.257959999999999912e-01 1.492759999999999920e-01 1.159970000000000029e-01 2.390899999999999970e-01 -6.389100000000000334e-02 2.746699999999999836e-02 5.170700000000000296e-02 -2.224540000000000128e-01 -1.465690000000000048e-01 4.486899999999999916e-02 1.930540000000000034e-01 2.274800000000000086e-02 -4.775999999999999863e-03 1.634510000000000129e-01 1.637149999999999994e-01 2.515749999999999931e-01 -2.487459999999999949e-01 -1.250429999999999875e-01 -6.086899999999999950e-02 2.590299999999999894e-02 2.990860000000000185e-01 -3.209389999999999743e-01 -1.005209999999999992e-01 -6.692900000000000238e-02 -1.379640000000000033e-01 -7.778100000000000291e-02 1.964509999999999867e-01 1.266579999999999928e-01 3.228000000000000314e-02 -2.414459999999999940e-01 3.601499999999999840e-02 1.819689999999999919e-01 9.046500000000000374e-02 -5.028000000000000351e-03 1.612939999999999929e-01 -2.603600000000000012e-02 8.921999999999999376e-03 -1.160199999999999981e-01 -1.724819999999999964e-01 3.553100000000000008e-02 4.304999999999999799e-02 7.144000000000000350e-02 2.472999999999999851e-02 -6.262199999999999711e-02 -1.336950000000000083e-01 9.084699999999999720e-02 -1.755359999999999976e-01 -1.701129999999999864e-01
-1.494119999999999893e-01 -1.853869999999999962e-01 -3.490349999999999842e-01 3.283139999999999947e-01 3.462239999999999762e-01 -3.040530000000000177e-01 -6.438859999999999584e-01 4.402760000000000007e-01 -1.841089999999999949e-01 -5.886799999999999672e-02 6.845500000000000196e-02 -1.105089999999999961e-01 -1.415359999999999951e-01 -4.832499999999999990e-02 2.125110000000000054e-01 1.331279999999999963e-01 -1.120440000000000047e-01 6.104180000000000161e-01 -1.157500000000000022e-02 -4.414379999999999971e-01 9.382300000000000362e-02 -1.458579999999999877e-01 7.508800000000000197e-02 2.085200000000000109e-01 1.562639999999999862e-01 1.757849999999999968e-01 1.749610000000000054e-01 3.240089999999999915e-01 -5.342899999999999733e-02 3.325899999999999690e-02 7.291699999999999571e-02 -3.196660000000000057e-01 -1.806679999999999953e-01 7.221700000000000341e-02 2.582329999999999903e-01 1.704299999999999912e-02 -1.790200000000000125e-02 1.754989999999999883e-01 1.997849999999999904e-01 3.432279999999999776e-01 -3.439760000000000040e-01 -1.858539999999999914e-01 -9.329300000000000093e-02 6.006899999999999740e-02 3.791030000000000233e-01 -3.831769999999999898e-01 -1.164649999999999991e-01 -9.839799999999999935e-02 -1.652530000000000110e-01 -1.229599999999999999e-01 2.395680000000000032e-01 1.914399999999999991e-01 3.287899999999999850e-02 -3.442390000000000172e-01 4.575400000000000300e-02 2.381189999999999973e-01 1.140720000000000067e-01 -9.110000000000000259e-04 2.113220000000000098e-01 -3.278500000000000164e-02 -4.000000000000000327e-05 -1.454040000000000055e-01 -2.198900000000000021e-01 2.489299999999999846e-02 8.273500000000000298e-02 1.059409999999999935e-01 2.224100000000000035e-02 -7.700700000000000600e-02 -1.608370000000000077e-01 8.658899999999999930e-02 -2.340530000000000110e-01 -2.291219999999999923e-01
-1.160909999999999997e-01 -8.755300000000000582e-02 -1.182359999999999939e-01 -6.927999999999999436e-02 -6.778599999999999903e-02 1.770710000000000062e-01 -1.645800000000000041e-02 9.356299999999999339e-02 -6.683999999999999837e-03 -6.508999999999999508e-02 7.767899999999999805e-02 1.024570000000000064e-01 -2.404299999999999840e-02 -3.771999999999999659e-02 4.250000000000000305e-02 -9.553599999999999592e-02 1.154970000000000024e-01 -1.039200000000000020e-02 9.074400000000000521e-02 3.467000000000000030e-03 -6.065299999999999858e-02 -2.968999999999999851e-03 6.855600000000000582e-02 7.995299999999999629e-02 8.809200000000000363e-02 7.979899999999999494e-02 -3.795300000000000062e-02 9.943499999999999561e-02 4.234600000000000170e-02 6.011799999999999783e-02 2.244799999999999920e-02 6.539999999999999807e-03 4.733799999999999814e-02 9.743999999999999190e-03 5.043399999999999966e-02 -1.778499999999999873e-02 -5.373599999999999904e-02 -4.898700000000000276e-02 -6.274200000000000610e-02 1.073559999999999931e-01 -5.643999999999999712e-02 -3.396400000000000113e-02 1.252260000000000040e-01 -1.395579999999999876e-01 -6.504300000000000359e-02 -4.635500000000000037e-02 -5.600999999999999729e-02 -3.960700000000000331e-02 5.041699999999999654e-02 -3.990500000000000297e-02 1.374999999999999920e-03 -1.890199999999999866e-02 1.005499999999999970e-02 -1.882100000000000092e-02 1.038500000000000013e-02 -1.768000000000000040e-03 2.296999999999999997e-03 -3.122399999999999828e-02 -1.407100000000000017e-02 4.957299999999999901e-02 -4.535700000000000148e-02 -5.553999999999999909e-03 -5.053200000000000053e-02 -3.038799999999999835e-02 -1.037700000000000081e-02 -6.831000000000000266e-03 -6.518000000000000356e-03 -7.004999999999999942e-03 -2.796500000000000027e-02 2.674000000000000161e-03 4.399999999999999886e-05 -1.937799999999999939e-02
-4.735600000000000226e-02 -8.613000000000000864e-03 -6.935199999999999698e-02 -8.974100000000000132e-02 4.396999999999999867e-03 2.528409999999999824e-01 1.092100000000000015e-02 7.115299999999999403e-02 2.746099999999999930e-02 -7.017500000000000127e-02 9.861699999999999633e-02 1.340330000000000132e-01 -3.476699999999999929e-02 -5.484300000000000286e-02 -7.664999999999999938e-03 -9.112999999999999573e-03 1.588499999999999912e-01 -1.106700000000000045e-02 1.094060000000000032e-01 4.114199999999999802e-02 -1.784360000000000113e-01 -3.887499999999999983e-02 6.978199999999999681e-02 -3.670000000000000085e-03 9.627700000000000147e-02 -7.284200000000000397e-02 7.401000000000000634e-02 9.220100000000000517e-02 9.649499999999999744e-02 1.860200000000000048e-02 -4.591900000000000148e-02 -4.402600000000000263e-02 1.466600000000000126e-01 6.236200000000000077e-02 9.940300000000000524e-02 -1.028180000000000066e-01 -6.530900000000000594e-02 -4.341699999999999726e-02 -7.508700000000000097e-02 5.341699999999999920e-02 -5.092900000000000205e-02 -9.365999999999999326e-03 1.763629999999999920e-01 -9.043199999999999850e-02 -9.644899999999999307e-02 -5.442400000000000015e-02 -6.187600000000000044e-02 9.939999999999999183e-03 5.871400000000000230e-02 -6.744799999999999407e-02 -2.358999999999999986e-03 -2.308000000000000156e-03 1.428699999999999935e-02 6.544999999999999603e-03 9.664000000000000715e-03 3.756899999999999823e-02 -4.053600000000000259e-02 -1.016070000000000029e-01 4.440000000000000045e-04 5.722100000000000103e-02 -8.420500000000000207e-02 -2.853500000000000134e-02 -1.208540000000000031e-01 -3.119999999999999944e-03 -7.501299999999999635e-02 7.700000000000000139e-05 2.440099999999999908e-02 -7.088700000000000556e-02 -1.193199999999999990e-02 -2.761600000000000166e-02 -2.325999999999999943e-02 2.598000000000000049e-03